
     Program BANDS v.6.6 starts on  8Aug2023 at 17:19:55 

     This program is part of the open-source Quantum ESPRESSO suite
     for quantum simulation of materials; please cite
         "P. Giannozzi et al., J. Phys.:Condens. Matter 21 395502 (2009);
         "P. Giannozzi et al., J. Phys.:Condens. Matter 29 465901 (2017);
          URL http://www.quantum-espresso.org", 
     in publications or presentations arising from this work. More details at
     http://www.quantum-espresso.org/quote

     Parallel version (MPI & OpenMP), running on     128 processor cores
     Number of MPI processes:               128
     Threads/MPI process:                     1

     MPI processes distributed on     1 nodes
     R & G space division:  proc/nbgrp/npool/nimage =     128
     Fft bands division:     nmany     =       1

     Reading xml data from directory:

     ./tmp/test_PBE.save/
     file W.pbe-spn-kjpaw_psl.1.0.0.UPF: wavefunction(s)  6S 5P 5D renormalized
     file S.pbe-n-kjpaw_psl.1.0.0.UPF: wavefunction(s)  3S 3P renormalized

     IMPORTANT: XC functional enforced from input :
     Exchange-correlation= PBE
                           (   1   4   3   4   0   0   0)
     Any further DFT definition will be discarded
     Please, verify this is what you really want


     Parallelization info
     --------------------
     sticks:   dense  smooth     PW     G-vecs:    dense   smooth      PW
     Min          92      74     20                 4403     3150     442
     Max          93      75     21                 4408     3153     445
     Sum       11885    9483   2581               564009   403427   56781

     Reading collected, re-writing distributed wavefunctions
     high-symmetry point:  0.0000 0.0000 0.0000   x coordinate   0.0000
     high-symmetry point:  0.0000 0.9952 0.0000   x coordinate   0.9952
     high-symmetry point: -0.0065 0.9952 1.2135   x coordinate   2.2087
     high-symmetry point: -0.0065 0.0000 1.2135   x coordinate   3.2040
     high-symmetry point:  0.0000 0.0000 0.0000   x coordinate   4.4175
     high-symmetry point: -0.5013 0.0000 1.0074   x coordinate   5.5427
     high-symmetry point: -0.5013 0.9952 1.0074   x coordinate   6.5379
     high-symmetry point:  0.0000 0.9952 0.0000   x coordinate   7.6631
     high-symmetry point: -0.4948 0.9952-0.2061   x coordinate   8.1991
     high-symmetry point: -0.4948 0.0000-0.2061   x coordinate   9.1944
     high-symmetry point:  0.0000 0.0000 0.0000   x coordinate   9.7304

     Plottable bands (eV) written to file bands-down.dat.gnu
     Bands written to file bands-down.dat

 **************************************************************************

                    xk=(   0.00000,   0.00000,   0.00000  )

     point group C_2h (2/m) 
     there are  4 classes
     the character table:

       E     C2    i     s_h  
A_g    1.00  1.00  1.00  1.00
B_g    1.00 -1.00  1.00 -1.00
A_u    1.00  1.00 -1.00 -1.00
B_u    1.00 -1.00 -1.00  1.00

     the symmetry operations in each class and the name of the first element:

     E        1
                                                                 
     C2       2
                                                                 
     i        3
                                                                 
     s_h      4
                                                                 

     Band symmetry, C_2h (2/m)  point group:

     e(  1 -  2) =    -63.65620  eV     2   --> A_g            
     e(  1 -  2) =    -63.65620  eV     2   --> B_u            
     e(  3 -  6) =    -63.62480  eV     4   --> A_g            
     e(  3 -  6) =    -63.62480  eV     4   --> B_g            
     e(  3 -  6) =    -63.62480  eV     4   --> A_u            
     e(  3 -  6) =    -63.62480  eV     4   --> B_u            
     e(  7 -  8) =    -63.60725  eV     2   --> A_g            
     e(  7 -  8) =    -63.60725  eV     2   --> B_u            
     e(  9 - 12) =    -28.15926  eV     4   --> A_g            
     e(  9 - 12) =    -28.15926  eV     4   --> B_g            
     e(  9 - 12) =    -28.15926  eV     4   --> A_u            
     e(  9 - 12) =    -28.15926  eV     4   --> B_u            
     e( 13 - 14) =    -28.11102  eV     2   --> A_g            
     e( 13 - 14) =    -28.11102  eV     2   --> B_u            
     e( 15 - 16) =    -27.94491  eV     2   --> B_g            
     e( 15 - 16) =    -27.94491  eV     2   --> A_u            
     e( 17 - 18) =    -27.90057  eV     2   --> A_g            
     e( 17 - 18) =    -27.90057  eV     2   --> B_u            
     e( 19 - 22) =    -27.83618  eV     4   --> A_g            
     e( 19 - 22) =    -27.83618  eV     4   --> B_g            
     e( 19 - 22) =    -27.83618  eV     4   --> A_u            
     e( 19 - 22) =    -27.83618  eV     4   --> B_u            
     e( 23 - 24) =    -27.74551  eV     2   --> A_g            
     e( 23 - 24) =    -27.74551  eV     2   --> B_u            
     e( 25 - 26) =    -27.74008  eV     2   --> B_g            
     e( 25 - 26) =    -27.74008  eV     2   --> A_u            
     e( 27 - 30) =    -27.65414  eV     4   --> A_g            
     e( 27 - 30) =    -27.65414  eV     4   --> B_g            
     e( 27 - 30) =    -27.65414  eV     4   --> A_u            
     e( 27 - 30) =    -27.65414  eV     4   --> B_u            
     e( 31 - 32) =    -27.54691  eV     2   --> A_g            
     e( 31 - 32) =    -27.54691  eV     2   --> B_u            
     e( 33 - 33) =     -4.17822  eV     1   --> A_g            
     e( 34 - 34) =     -3.90396  eV     1   --> B_u            
     e( 35 - 35) =     -2.85199  eV     1   --> A_g            
     e( 36 - 36) =     -2.59180  eV     1   --> B_u            
     e( 37 - 37) =     -2.29364  eV     1   --> A_u            
     e( 38 - 38) =     -2.29341  eV     1   --> A_g            
     e( 39 - 39) =     -2.11681  eV     1   --> B_g            
     e( 40 - 40) =     -2.11659  eV     1   --> B_u            
     e( 41 - 41) =     -1.98616  eV     1   --> A_g            
     e( 42 - 42) =     -1.95559  eV     1   --> B_u            
     e( 43 - 43) =     -1.91940  eV     1   --> B_u            
     e( 44 - 44) =     -1.76701  eV     1   --> A_g            
     e( 45 - 45) =     -1.76687  eV     1   --> A_u            
     e( 46 - 46) =     -1.75425  eV     1   --> A_g            
     e( 47 - 47) =     -1.70042  eV     1   --> B_u            
     e( 48 - 48) =     -1.70028  eV     1   --> B_g            
     e( 49 - 49) =      3.95504  eV     1   --> A_g            
     e( 50 - 50) =      3.96064  eV     1   --> B_u            
     e( 51 - 51) =      3.97260  eV     1   --> A_g            
     e( 52 - 52) =      4.80433  eV     1   --> A_g            
     e( 53 - 53) =      4.80446  eV     1   --> A_u            
     e( 54 - 55) =      4.82291  eV     2   --> B_g            
     e( 54 - 55) =      4.82291  eV     2   --> B_u            
     e( 56 - 56) =      5.13665  eV     1   --> B_u            
     e( 57 - 57) =      5.23489  eV     1   --> A_u            
     e( 58 - 58) =      5.23499  eV     1   --> A_g            
     e( 59 - 59) =      5.47538  eV     1   --> A_g            
     e( 60 - 61) =      5.58185  eV     2   --> B_g            
     e( 60 - 61) =      5.58185  eV     2   --> B_u            
     e( 62 - 62) =      5.78843  eV     1   --> A_g            
     e( 63 - 63) =      5.91385  eV     1   --> B_u            
     e( 64 - 64) =      5.91949  eV     1   --> B_u            
     e( 65 - 66) =      6.06863  eV     2   --> A_g            
     e( 65 - 66) =      6.06863  eV     2   --> A_u            
     e( 67 - 68) =      6.16344  eV     2   --> B_g            
     e( 67 - 68) =      6.16344  eV     2   --> B_u            
     e( 69 - 69) =      6.82185  eV     1   --> A_u            
     e( 70 - 70) =      6.91821  eV     1   --> B_g            
     e( 71 - 71) =      6.95359  eV     1   --> B_g            
     e( 72 - 72) =      6.98507  eV     1   --> A_u            
     e( 73 - 74) =      7.06424  eV     2   --> A_g            
     e( 73 - 74) =      7.06424  eV     2   --> A_u            
     e( 75 - 75) =      7.10825  eV     1   --> B_u            
     e( 76 - 76) =      7.11553  eV     1   --> A_u            
     e( 77 - 77) =      7.11568  eV     1   --> A_g            
     e( 78 - 79) =      7.35064  eV     2   --> B_g            
     e( 78 - 79) =      7.35064  eV     2   --> B_u            
     e( 80 - 80) =      7.50044  eV     1   --> A_g            
     e( 81 - 82) =      7.69346  eV     2   --> B_g            
     e( 81 - 82) =      7.69346  eV     2   --> B_u            
     e( 83 - 83) =      7.75025  eV     1   --> B_u            
     e( 84 - 84) =      7.80416  eV     1   --> A_g            
     e( 85 - 85) =      8.35254  eV     1   --> B_u            
     e( 86 - 86) =      8.35264  eV     1   --> B_g            
     e( 87 - 87) =      8.47914  eV     1   --> A_g            
     e( 88 - 89) =      8.62674  eV     2   --> A_g            
     e( 88 - 89) =      8.62674  eV     2   --> A_u            
     e( 90 - 90) =      8.89067  eV     1   --> B_u            
     e( 91 - 91) =      9.05825  eV     1   --> A_u            
     e( 92 - 93) =      9.18878  eV     2   --> A_g            
     e( 92 - 93) =      9.18878  eV     2   --> A_u            
     e( 94 - 94) =      9.30882  eV     1   --> B_g            
     e( 95 - 95) =      9.32991  eV     1   --> A_g            
     e( 96 - 97) =      9.46476  eV     2   --> B_g            
     e( 96 - 97) =      9.46476  eV     2   --> B_u            
     e( 98 - 98) =      9.54809  eV     1   --> B_u            
     e( 99 - 99) =      9.94404  eV     1   --> A_g            
     e(100 -100) =     10.24966  eV     1   --> B_u            
     e(101 -101) =     10.29423  eV     1   --> A_g            
     e(102 -102) =     10.45654  eV     1   --> A_u            
     e(103 -103) =     10.47841  eV     1   --> B_g            
     e(104 -104) =     10.51037  eV     1   --> B_g            
     e(105 -105) =     10.67847  eV     1   --> A_u            
     e(106 -106) =     10.91663  eV     1   --> B_u            
     e(107 -107) =     11.60805  eV     1   --> A_g            
     e(108 -108) =     11.63158  eV     1   --> B_u            
     e(109 -109) =     12.72892  eV     1   --> A_g            
     e(110 -110) =     12.86956  eV     1   --> B_u            
     e(111 -112) =     13.05765  eV     2   --> A_g            
     e(111 -112) =     13.05765  eV     2   --> A_u            
     e(113 -114) =     13.08480  eV     2   --> B_g            
     e(113 -114) =     13.08480  eV     2   --> B_u            
     e(115 -116) =     13.10800  eV     2   --> A_g            
     e(115 -116) =     13.10800  eV     2   --> A_u            
     e(117 -118) =     13.33216  eV     2   --> B_g            
     e(117 -118) =     13.33216  eV     2   --> B_u            
     e(119 -119) =     13.41059  eV     1   --> B_g            
     e(120 -120) =     13.44710  eV     1   --> A_u            
     e(121 -122) =     13.58977  eV     2   --> A_g            
     e(121 -122) =     13.58977  eV     2   --> A_u            
     e(123 -123) =     13.79516  eV     1   --> A_g            
     e(124 -124) =     14.30415  eV     1   --> B_g            
     e(125 -125) =     14.36226  eV     1   --> A_g            
     e(126 -127) =     14.43839  eV     2   --> B_g            
     e(126 -127) =     14.43839  eV     2   --> B_u            
     e(128 -128) =     14.59081  eV     1   --> A_u            
     e(129 -129) =     14.61882  eV     1   --> A_u            
     e(130 -130) =     14.71661  eV     1   --> B_u            

 **************************************************************************

 **************************************************************************

                    xk=(   0.00000,   0.04976,   0.00000  )

     point group C_2  (2)   
     there are  2 classes
     the character table:

       E     C2   
A      1.00  1.00
B      1.00 -1.00

     the symmetry operations in each class and the name of the first element:

     E        1
                                                                 
     C2       2
                                                                 

     Band symmetry, C_2  (2)    point group:

     e(  1 -  2) =    -63.65617  eV     2   --> A              
     e(  1 -  2) =    -63.65617  eV     2   --> B              
     e(  3 -  4) =    -63.62576  eV     2   --> A              
     e(  3 -  4) =    -63.62576  eV     2   --> B              
     e(  5 -  6) =    -63.62384  eV     2   --> A              
     e(  5 -  6) =    -63.62384  eV     2   --> B              
     e(  7 -  8) =    -63.60726  eV     2   --> A              
     e(  7 -  8) =    -63.60726  eV     2   --> B              
     e(  9 - 10) =    -28.15927  eV     2   --> A              
     e(  9 - 10) =    -28.15927  eV     2   --> B              
     e( 11 - 12) =    -28.15874  eV     2   --> A              
     e( 11 - 12) =    -28.15874  eV     2   --> B              
     e( 13 - 14) =    -28.11095  eV     2   --> A              
     e( 13 - 14) =    -28.11095  eV     2   --> B              
     e( 15 - 16) =    -27.94534  eV     2   --> A              
     e( 15 - 16) =    -27.94534  eV     2   --> B              
     e( 17 - 18) =    -27.90045  eV     2   --> A              
     e( 17 - 18) =    -27.90045  eV     2   --> B              
     e( 19 - 20) =    -27.83688  eV     2   --> A              
     e( 19 - 20) =    -27.83688  eV     2   --> B              
     e( 21 - 22) =    -27.83561  eV     2   --> A              
     e( 21 - 22) =    -27.83561  eV     2   --> B              
     e( 23 - 24) =    -27.74627  eV     2   --> A              
     e( 23 - 24) =    -27.74627  eV     2   --> B              
     e( 25 - 26) =    -27.73956  eV     2   --> A              
     e( 25 - 26) =    -27.73956  eV     2   --> B              
     e( 27 - 28) =    -27.65913  eV     2   --> A              
     e( 27 - 28) =    -27.65913  eV     2   --> B              
     e( 29 - 30) =    -27.64905  eV     2   --> A              
     e( 29 - 30) =    -27.64905  eV     2   --> B              
     e( 31 - 32) =    -27.54692  eV     2   --> A              
     e( 31 - 32) =    -27.54692  eV     2   --> B              
     e( 33 - 33) =     -4.17624  eV     1   --> A              
     e( 34 - 34) =     -3.90196  eV     1   --> B              
     e( 35 - 35) =     -2.85126  eV     1   --> A              
     e( 36 - 36) =     -2.59082  eV     1   --> B              
     e( 37 - 37) =     -2.30224  eV     1   --> A              
     e( 38 - 38) =     -2.29128  eV     1   --> A              
     e( 39 - 39) =     -2.12366  eV     1   --> B              
     e( 40 - 40) =     -2.11357  eV     1   --> B              
     e( 41 - 41) =     -1.98509  eV     1   --> A              
     e( 42 - 42) =     -1.95542  eV     1   --> B              
     e( 43 - 43) =     -1.91882  eV     1   --> B              
     e( 44 - 44) =     -1.79826  eV     1   --> A              
     e( 45 - 45) =     -1.75431  eV     1   --> A              
     e( 46 - 46) =     -1.73357  eV     1   -->   ?
     e( 47 - 47) =     -1.73316  eV     1   -->   ?
     e( 48 - 48) =     -1.66863  eV     1   --> B              
     e( 49 - 49) =      3.95707  eV     1   --> A              
     e( 50 - 50) =      3.96318  eV     1   --> B              
     e( 51 - 51) =      3.97500  eV     1   --> A              
     e( 52 - 52) =      4.78361  eV     1   --> A              
     e( 53 - 53) =      4.80829  eV     1   --> B              
     e( 54 - 54) =      4.82910  eV     1   --> A              
     e( 55 - 55) =      4.84474  eV     1   --> B              
     e( 56 - 56) =      5.13889  eV     1   --> B              
     e( 57 - 57) =      5.17670  eV     1   --> A              
     e( 58 - 58) =      5.29811  eV     1   --> A              
     e( 59 - 59) =      5.47435  eV     1   --> A              
     e( 60 - 60) =      5.56942  eV     1   --> B              
     e( 61 - 61) =      5.58811  eV     1   --> B              
     e( 62 - 62) =      5.78833  eV     1   --> A              
     e( 63 - 63) =      5.91445  eV     1   --> B              
     e( 64 - 64) =      5.91706  eV     1   --> B              
     e( 65 - 65) =      6.01863  eV     1   --> A              
     e( 66 - 66) =      6.12030  eV     1   --> A              
     e( 67 - 67) =      6.16128  eV     1   --> B              
     e( 68 - 68) =      6.17842  eV     1   --> B              
     e( 69 - 69) =      6.82167  eV     1   --> A              
     e( 70 - 70) =      6.90682  eV     1   --> B              
     e( 71 - 71) =      6.95037  eV     1   --> B              
     e( 72 - 72) =      6.97784  eV     1   --> A              
     e( 73 - 73) =      7.02489  eV     1   --> A              
     e( 74 - 74) =      7.02755  eV     1   --> A              
     e( 75 - 75) =      7.12239  eV     1   --> B              
     e( 76 - 76) =      7.13737  eV     1   --> A              
     e( 77 - 77) =      7.16801  eV     1   --> A              
     e( 78 - 78) =      7.28407  eV     1   --> B              
     e( 79 - 79) =      7.40680  eV     1   --> B              
     e( 80 - 80) =      7.50119  eV     1   --> A              
     e( 81 - 81) =      7.68129  eV     1   --> B              
     e( 82 - 82) =      7.71204  eV     1   --> B              
     e( 83 - 83) =      7.74991  eV     1   --> B              
     e( 84 - 84) =      7.81099  eV     1   --> A              
     e( 85 - 85) =      8.29320  eV     1   --> B              
     e( 86 - 86) =      8.40670  eV     1   --> B              
     e( 87 - 87) =      8.47762  eV     1   --> A              
     e( 88 - 88) =      8.56748  eV     1   --> A              
     e( 89 - 89) =      8.68591  eV     1   --> A              
     e( 90 - 90) =      8.87012  eV     1   --> B              
     e( 91 - 91) =      9.01764  eV     1   --> A              
     e( 92 - 92) =      9.18047  eV     1   --> A              
     e( 93 - 93) =      9.20022  eV     1   --> A              
     e( 94 - 94) =      9.32136  eV     1   --> B              
     e( 95 - 95) =      9.36386  eV     1   --> A              
     e( 96 - 96) =      9.45243  eV     1   --> B              
     e( 97 - 97) =      9.48518  eV     1   --> B              
     e( 98 - 98) =      9.54760  eV     1   --> B              
     e( 99 - 99) =      9.94143  eV     1   --> A              
     e(100 -100) =     10.24660  eV     1   --> B              
     e(101 -101) =     10.27292  eV     1   --> A              
     e(102 -102) =     10.47029  eV     1   --> B              
     e(103 -103) =     10.47510  eV     1   --> A              
     e(104 -104) =     10.48080  eV     1   --> B              
     e(105 -105) =     10.66305  eV     1   --> A              
     e(106 -106) =     10.94829  eV     1   --> B              
     e(107 -107) =     11.61656  eV     1   --> A              
     e(108 -108) =     11.63122  eV     1   --> B              
     e(109 -109) =     12.73433  eV     1   --> A              
     e(110 -110) =     12.87406  eV     1   --> B              
     e(111 -111) =     13.02105  eV     1   --> A              
     e(112 -112) =     13.03787  eV     1   --> B              
     e(113 -113) =     13.05997  eV     1   --> A              
     e(114 -114) =     13.09877  eV     1   --> A              
     e(115 -115) =     13.11730  eV     1   --> B              
     e(116 -116) =     13.14129  eV     1   --> A              
     e(117 -117) =     13.31938  eV     1   --> B              
     e(118 -118) =     13.34912  eV     1   --> B              
     e(119 -119) =     13.41104  eV     1   --> B              
     e(120 -120) =     13.44619  eV     1   --> A              
     e(121 -121) =     13.58037  eV     1   --> A              
     e(122 -122) =     13.60184  eV     1   --> A              
     e(123 -123) =     13.79553  eV     1   --> A              
     e(124 -124) =     14.29274  eV     1   --> B              
     e(125 -125) =     14.35959  eV     1   --> A              
     e(126 -126) =     14.41814  eV     1   --> B              
     e(127 -127) =     14.45968  eV     1   --> B              
     e(128 -128) =     14.58841  eV     1   --> A              
     e(129 -129) =     14.61375  eV     1   --> A              
     e(130 -130) =     14.71679  eV     1   --> B              

 **************************************************************************

 **************************************************************************

                    xk=(   0.00000,   0.09952,   0.00000  )

     Band symmetry, C_2  (2)    point group:

     e(  1 -  2) =    -63.65608  eV     2   --> A              
     e(  1 -  2) =    -63.65608  eV     2   --> B              
     e(  3 -  4) =    -63.62676  eV     2   --> A              
     e(  3 -  4) =    -63.62676  eV     2   --> B              
     e(  5 -  6) =    -63.62291  eV     2   --> A              
     e(  5 -  6) =    -63.62291  eV     2   --> B              
     e(  7 -  8) =    -63.60729  eV     2   --> A              
     e(  7 -  8) =    -63.60729  eV     2   --> B              
     e(  9 - 10) =    -28.15874  eV     2   --> A              
     e(  9 - 10) =    -28.15874  eV     2   --> B              
     e( 11 - 12) =    -28.15772  eV     2   --> A              
     e( 11 - 12) =    -28.15772  eV     2   --> B              
     e( 13 - 14) =    -28.11076  eV     2   --> A              
     e( 13 - 14) =    -28.11076  eV     2   --> B              
     e( 15 - 16) =    -27.94663  eV     2   --> A              
     e( 15 - 16) =    -27.94663  eV     2   --> B              
     e( 17 - 18) =    -27.90010  eV     2   --> A              
     e( 17 - 18) =    -27.90010  eV     2   --> B              
     e( 19 - 20) =    -27.83775  eV     2   --> A              
     e( 19 - 20) =    -27.83775  eV     2   --> B              
     e( 21 - 22) =    -27.83519  eV     2   --> A              
     e( 21 - 22) =    -27.83519  eV     2   --> B              
     e( 23 - 24) =    -27.74809  eV     2   --> A              
     e( 23 - 24) =    -27.74809  eV     2   --> B              
     e( 25 - 26) =    -27.73844  eV     2   --> A              
     e( 25 - 26) =    -27.73844  eV     2   --> B              
     e( 27 - 28) =    -27.66399  eV     2   --> A              
     e( 27 - 28) =    -27.66399  eV     2   --> B              
     e( 29 - 30) =    -27.64388  eV     2   --> A              
     e( 29 - 30) =    -27.64388  eV     2   --> B              
     e( 31 - 32) =    -27.54693  eV     2   --> A              
     e( 31 - 32) =    -27.54693  eV     2   --> B              
     e( 33 - 33) =     -4.17030  eV     1   --> A              
     e( 34 - 34) =     -3.89599  eV     1   --> B              
     e( 35 - 35) =     -2.84906  eV     1   --> A              
     e( 36 - 36) =     -2.58789  eV     1   --> B              
     e( 37 - 37) =     -2.31877  eV     1   --> A              
     e( 38 - 38) =     -2.29417  eV     1   --> A              
     e( 39 - 39) =     -2.13561  eV     1   --> B              
     e( 40 - 40) =     -2.11339  eV     1   --> B              
     e( 41 - 41) =     -1.98187  eV     1   --> A              
     e( 42 - 42) =     -1.95492  eV     1   --> B              
     e( 43 - 43) =     -1.91710  eV     1   --> B              
     e( 44 - 44) =     -1.82587  eV     1   --> A              
     e( 45 - 45) =     -1.76562  eV     1   --> B              
     e( 46 - 46) =     -1.75447  eV     1   --> A              
     e( 47 - 47) =     -1.69979  eV     1   --> A              
     e( 48 - 48) =     -1.63911  eV     1   --> B              
     e( 49 - 49) =      3.96316  eV     1   --> A              
     e( 50 - 50) =      3.97080  eV     1   --> B              
     e( 51 - 51) =      3.98220  eV     1   --> A              
     e( 52 - 52) =      4.76774  eV     1   --> A              
     e( 53 - 53) =      4.80162  eV     1   --> B              
     e( 54 - 54) =      4.85647  eV     1   --> A              
     e( 55 - 55) =      4.87246  eV     1   --> B              
     e( 56 - 56) =      5.12348  eV     1   --> A              
     e( 57 - 57) =      5.14559  eV     1   --> B              
     e( 58 - 58) =      5.36623  eV     1   --> A              
     e( 59 - 59) =      5.47128  eV     1   --> A              
     e( 60 - 60) =      5.55088  eV     1   --> B              
     e( 61 - 61) =      5.58933  eV     1   --> B              
     e( 62 - 62) =      5.78797  eV     1   --> A              
     e( 63 - 63) =      5.90976  eV     1   --> B              
     e( 64 - 64) =      5.91623  eV     1   --> B              
     e( 65 - 65) =      5.97110  eV     1   --> A              
     e( 66 - 66) =      6.17180  eV     1   --> B              
     e( 67 - 67) =      6.17224  eV     1   --> A              
     e( 68 - 68) =      6.20498  eV     1   --> B              
     e( 69 - 69) =      6.82119  eV     1   --> A              
     e( 70 - 70) =      6.88019  eV     1   --> B              
     e( 71 - 71) =      6.94085  eV     1   --> B              
     e( 72 - 72) =      6.95730  eV     1   --> A              
     e( 73 - 73) =      6.96286  eV     1   --> A              
     e( 74 - 74) =      6.97691  eV     1   --> A              
     e( 75 - 75) =      7.15731  eV     1   --> B              
     e( 76 - 76) =      7.18623  eV     1   --> A              
     e( 77 - 77) =      7.21135  eV     1   --> B              
     e( 78 - 78) =      7.22646  eV     1   --> A              
     e( 79 - 79) =      7.44570  eV     1   --> B              
     e( 80 - 80) =      7.50339  eV     1   --> A              
     e( 81 - 81) =      7.68158  eV     1   --> B              
     e( 82 - 82) =      7.73322  eV     1   --> B              
     e( 83 - 83) =      7.74886  eV     1   --> B              
     e( 84 - 84) =      7.82997  eV     1   --> A              
     e( 85 - 85) =      8.22964  eV     1   --> B              
     e( 86 - 86) =      8.45477  eV     1   --> B              
     e( 87 - 87) =      8.47302  eV     1   --> A              
     e( 88 - 88) =      8.50915  eV     1   --> A              
     e( 89 - 89) =      8.74359  eV     1   --> A              
     e( 90 - 90) =      8.81472  eV     1   --> B              
     e( 91 - 91) =      8.92831  eV     1   --> A              
     e( 92 - 92) =      9.17559  eV     1   --> A              
     e( 93 - 93) =      9.21454  eV     1   --> A              
     e( 94 - 94) =      9.35235  eV     1   --> B              
     e( 95 - 95) =      9.43355  eV     1   --> A              
     e( 96 - 96) =      9.44923  eV     1   --> B              
     e( 97 - 97) =      9.51244  eV     1   --> B              
     e( 98 - 98) =      9.54617  eV     1   --> B              
     e( 99 - 99) =      9.93315  eV     1   --> A              
     e(100 -100) =     10.22457  eV     1   --> A              
     e(101 -101) =     10.23838  eV     1   --> B              
     e(102 -102) =     10.37403  eV     1   --> B              
     e(103 -103) =     10.48739  eV     1   --> B              
     e(104 -104) =     10.51550  eV     1   --> A              
     e(105 -105) =     10.61945  eV     1   --> A              
     e(106 -106) =     11.01867  eV     1   --> B              
     e(107 -107) =     11.63085  eV     1   --> B              
     e(108 -108) =     11.63999  eV     1   --> A              
     e(109 -109) =     12.75030  eV     1   --> A              
     e(110 -110) =     12.88740  eV     1   --> B              
     e(111 -111) =     12.97762  eV     1   --> B              
     e(112 -112) =     12.98039  eV     1   --> A              
     e(113 -113) =     13.01517  eV     1   --> A              
     e(114 -114) =     13.12630  eV     1   --> A              
     e(115 -115) =     13.13451  eV     1   --> B              
     e(116 -116) =     13.16800  eV     1   --> A              
     e(117 -117) =     13.31196  eV     1   --> B              
     e(118 -118) =     13.36919  eV     1   --> B              
     e(119 -119) =     13.41247  eV     1   --> B              
     e(120 -120) =     13.44370  eV     1   --> A              
     e(121 -121) =     13.57391  eV     1   --> A              
     e(122 -122) =     13.61705  eV     1   --> A              
     e(123 -123) =     13.79655  eV     1   --> A              
     e(124 -124) =     14.26090  eV     1   --> B              
     e(125 -125) =     14.34965  eV     1   --> A              
     e(126 -126) =     14.39916  eV     1   --> B              
     e(127 -127) =     14.48139  eV     1   --> B              
     e(128 -128) =     14.58379  eV     1   --> A              
     e(129 -129) =     14.59911  eV     1   --> A              
     e(130 -130) =     14.71697  eV     1   --> B              

 **************************************************************************

 **************************************************************************

                    xk=(   0.00000,   0.14928,   0.00000  )

     Band symmetry, C_2  (2)    point group:

     e(  1 -  2) =    -63.65593  eV     2   --> A              
     e(  1 -  2) =    -63.65593  eV     2   --> B              
     e(  3 -  4) =    -63.62777  eV     2   --> A              
     e(  3 -  4) =    -63.62777  eV     2   --> B              
     e(  5 -  6) =    -63.62201  eV     2   --> A              
     e(  5 -  6) =    -63.62201  eV     2   --> B              
     e(  7 -  8) =    -63.60733  eV     2   --> A              
     e(  7 -  8) =    -63.60733  eV     2   --> B              
     e(  9 - 10) =    -28.15767  eV     2   --> A              
     e(  9 - 10) =    -28.15767  eV     2   --> B              
     e( 11 - 12) =    -28.15624  eV     2   --> A              
     e( 11 - 12) =    -28.15624  eV     2   --> B              
     e( 13 - 14) =    -28.11045  eV     2   --> A              
     e( 13 - 14) =    -28.11045  eV     2   --> B              
     e( 15 - 16) =    -27.94875  eV     2   --> A              
     e( 15 - 16) =    -27.94875  eV     2   --> B              
     e( 17 - 18) =    -27.89953  eV     2   --> A              
     e( 17 - 18) =    -27.89953  eV     2   --> B              
     e( 19 - 20) =    -27.83876  eV     2   --> A              
     e( 19 - 20) =    -27.83876  eV     2   --> B              
     e( 21 - 22) =    -27.83491  eV     2   --> A              
     e( 21 - 22) =    -27.83491  eV     2   --> B              
     e( 23 - 24) =    -27.75047  eV     2   --> A              
     e( 23 - 24) =    -27.75047  eV     2   --> B              
     e( 25 - 26) =    -27.73722  eV     2   --> A              
     e( 25 - 26) =    -27.73722  eV     2   --> B              
     e( 27 - 28) =    -27.66871  eV     2   --> A              
     e( 27 - 28) =    -27.66871  eV     2   --> B              
     e( 29 - 30) =    -27.63866  eV     2   --> A              
     e( 29 - 30) =    -27.63866  eV     2   --> B              
     e( 31 - 32) =    -27.54696  eV     2   --> A              
     e( 31 - 32) =    -27.54696  eV     2   --> B              
     e( 33 - 33) =     -4.16043  eV     1   --> A              
     e( 34 - 34) =     -3.88605  eV     1   --> B              
     e( 35 - 35) =     -2.84541  eV     1   --> A              
     e( 36 - 36) =     -2.58304  eV     1   --> B              
     e( 37 - 37) =     -2.34414  eV     1   --> A              
     e( 38 - 38) =     -2.30106  eV     1   --> A              
     e( 39 - 39) =     -2.15385  eV     1   --> B              
     e( 40 - 40) =     -2.11550  eV     1   --> B              
     e( 41 - 41) =     -1.97654  eV     1   --> A              
     e( 42 - 42) =     -1.95409  eV     1   --> B              
     e( 43 - 43) =     -1.91422  eV     1   --> B              
     e( 44 - 44) =     -1.84838  eV     1   --> A              
     e( 45 - 45) =     -1.79613  eV     1   --> B              
     e( 46 - 46) =     -1.75475  eV     1   --> A              
     e( 47 - 47) =     -1.66700  eV     1   --> A              
     e( 48 - 48) =     -1.61262  eV     1   --> B              
     e( 49 - 49) =      3.97326  eV     1   --> A              
     e( 50 - 50) =      3.98346  eV     1   --> B              
     e( 51 - 51) =      3.99416  eV     1   --> A              
     e( 52 - 52) =      4.75739  eV     1   --> A              
     e( 53 - 53) =      4.80355  eV     1   --> B              
     e( 54 - 54) =      4.88503  eV     1   --> A              
     e( 55 - 55) =      4.90460  eV     1   --> B              
     e( 56 - 56) =      5.07559  eV     1   --> A              
     e( 57 - 57) =      5.15667  eV     1   --> B              
     e( 58 - 58) =      5.43935  eV     1   --> A              
     e( 59 - 59) =      5.46619  eV     1   --> A              
     e( 60 - 60) =      5.52729  eV     1   --> B              
     e( 61 - 61) =      5.58809  eV     1   --> B              
     e( 62 - 62) =      5.78717  eV     1   --> A              
     e( 63 - 63) =      5.89758  eV     1   --> B              
     e( 64 - 64) =      5.91910  eV     1   --> B              
     e( 65 - 65) =      5.92662  eV     1   --> A              
     e( 66 - 66) =      6.19374  eV     1   --> B              
     e( 67 - 67) =      6.22241  eV     1   --> A              
     e( 68 - 68) =      6.24094  eV     1   --> B              
     e( 69 - 69) =      6.82056  eV     1   --> A              
     e( 70 - 70) =      6.84897  eV     1   --> B              
     e( 71 - 71) =      6.89778  eV     1   --> A              
     e( 72 - 72) =      6.92543  eV     1   --> B              
     e( 73 - 73) =      6.92636  eV     1   --> A              
     e( 74 - 74) =      6.93038  eV     1   --> A              
     e( 75 - 75) =      7.13525  eV     1   --> B              
     e( 76 - 76) =      7.20245  eV     1   --> B              
     e( 77 - 77) =      7.23635  eV     1   --> A              
     e( 78 - 78) =      7.28066  eV     1   --> A              
     e( 79 - 79) =      7.46162  eV     1   --> B              
     e( 80 - 80) =      7.50693  eV     1   --> A              
     e( 81 - 81) =      7.69942  eV     1   --> B              
     e( 82 - 82) =      7.74705  eV     1   --> B              
     e( 83 - 83) =      7.75494  eV     1   --> B              
     e( 84 - 84) =      7.85698  eV     1   --> A              
     e( 85 - 85) =      8.16322  eV     1   --> B              
     e( 86 - 86) =      8.45295  eV     1   --> A              
     e( 87 - 87) =      8.46525  eV     1   --> A              
     e( 88 - 88) =      8.49655  eV     1   --> B              
     e( 89 - 89) =      8.73547  eV     1   --> B              
     e( 90 - 90) =      8.79850  eV     1   --> A              
     e( 91 - 91) =      8.82200  eV     1   --> A              
     e( 92 - 92) =      9.17479  eV     1   --> A              
     e( 93 - 93) =      9.23173  eV     1   --> A              
     e( 94 - 94) =      9.38910  eV     1   --> B              
     e( 95 - 95) =      9.45592  eV     1   --> B              
     e( 96 - 96) =      9.50831  eV     1   --> A              
     e( 97 - 97) =      9.54462  eV     1   --> B              
     e( 98 - 98) =      9.54543  eV     1   --> B              
     e( 99 - 99) =      9.91773  eV     1   --> A              
     e(100 -100) =     10.16520  eV     1   --> A              
     e(101 -101) =     10.22740  eV     1   --> B              
     e(102 -102) =     10.25075  eV     1   --> B              
     e(103 -103) =     10.49682  eV     1   --> B              
     e(104 -104) =     10.55447  eV     1   --> A              
     e(105 -105) =     10.56264  eV     1   --> A              
     e(106 -106) =     11.09668  eV     1   --> B              
     e(107 -107) =     11.63280  eV     1   --> B              
     e(108 -108) =     11.67334  eV     1   --> A              
     e(109 -109) =     12.77610  eV     1   --> A              
     e(110 -110) =     12.90532  eV     1   --> B              
     e(111 -111) =     12.90908  eV     1   --> B              
     e(112 -112) =     12.93770  eV     1   --> A              
     e(113 -113) =     12.96255  eV     1   --> A              
     e(114 -114) =     13.13656  eV     1   --> B              
     e(115 -115) =     13.15129  eV     1   --> A              
     e(116 -116) =     13.18495  eV     1   --> A              
     e(117 -117) =     13.31084  eV     1   --> B              
     e(118 -118) =     13.39174  eV     1   --> B              
     e(119 -119) =     13.41517  eV     1   --> B              
     e(120 -120) =     13.44017  eV     1   --> A              
     e(121 -121) =     13.57192  eV     1   --> A              
     e(122 -122) =     13.63615  eV     1   --> A              
     e(123 -123) =     13.79802  eV     1   --> A              
     e(124 -124) =     14.21432  eV     1   --> B              
     e(125 -125) =     14.32828  eV     1   --> A              
     e(126 -126) =     14.38139  eV     1   --> B              
     e(127 -127) =     14.50271  eV     1   --> B              
     e(128 -128) =     14.57653  eV     1   --> A              
     e(129 -129) =     14.58291  eV     1   --> A              
     e(130 -130) =     14.71587  eV     1   --> B              

 **************************************************************************

 **************************************************************************

                    xk=(   0.00000,   0.19905,   0.00000  )

     Band symmetry, C_2  (2)    point group:

     e(  1 -  2) =    -63.65573  eV     2   --> A              
     e(  1 -  2) =    -63.65573  eV     2   --> B              
     e(  3 -  4) =    -63.62879  eV     2   --> A              
     e(  3 -  4) =    -63.62879  eV     2   --> B              
     e(  5 -  6) =    -63.62113  eV     2   --> A              
     e(  5 -  6) =    -63.62113  eV     2   --> B              
     e(  7 -  8) =    -63.60738  eV     2   --> A              
     e(  7 -  8) =    -63.60738  eV     2   --> B              
     e(  9 - 10) =    -28.15604  eV     2   --> A              
     e(  9 - 10) =    -28.15604  eV     2   --> B              
     e( 11 - 12) =    -28.15433  eV     2   --> A              
     e( 11 - 12) =    -28.15433  eV     2   --> B              
     e( 13 - 14) =    -28.11003  eV     2   --> A              
     e( 13 - 14) =    -28.11003  eV     2   --> B              
     e( 15 - 16) =    -27.95165  eV     2   --> A              
     e( 15 - 16) =    -27.95165  eV     2   --> B              
     e( 17 - 18) =    -27.89878  eV     2   --> A              
     e( 17 - 18) =    -27.89878  eV     2   --> B              
     e( 19 - 20) =    -27.83993  eV     2   --> A              
     e( 19 - 20) =    -27.83993  eV     2   --> B              
     e( 21 - 22) =    -27.83475  eV     2   --> A              
     e( 21 - 22) =    -27.83475  eV     2   --> B              
     e( 23 - 24) =    -27.75326  eV     2   --> A              
     e( 23 - 24) =    -27.75326  eV     2   --> B              
     e( 25 - 26) =    -27.73603  eV     2   --> A              
     e( 25 - 26) =    -27.73603  eV     2   --> B              
     e( 27 - 28) =    -27.67326  eV     2   --> A              
     e( 27 - 28) =    -27.67326  eV     2   --> B              
     e( 29 - 30) =    -27.63342  eV     2   --> A              
     e( 29 - 30) =    -27.63342  eV     2   --> B              
     e( 31 - 32) =    -27.54702  eV     2   --> A              
     e( 31 - 32) =    -27.54702  eV     2   --> B              
     e( 33 - 33) =     -4.14663  eV     1   --> A              
     e( 34 - 34) =     -3.87218  eV     1   --> B              
     e( 35 - 35) =     -2.84034  eV     1   --> A              
     e( 36 - 36) =     -2.57632  eV     1   --> B              
     e( 37 - 37) =     -2.37873  eV     1   --> A              
     e( 38 - 38) =     -2.31105  eV     1   --> A              
     e( 39 - 39) =     -2.17959  eV     1   --> B              
     e( 40 - 40) =     -2.11942  eV     1   --> B              
     e( 41 - 41) =     -1.96912  eV     1   --> A              
     e( 42 - 42) =     -1.95295  eV     1   --> B              
     e( 43 - 43) =     -1.91019  eV     1   --> B              
     e( 44 - 44) =     -1.86504  eV     1   --> A              
     e( 45 - 45) =     -1.82312  eV     1   --> B              
     e( 46 - 46) =     -1.75515  eV     1   --> A              
     e( 47 - 47) =     -1.63632  eV     1   --> A              
     e( 48 - 48) =     -1.58974  eV     1   --> B              
     e( 49 - 49) =      3.98729  eV     1   --> A              
     e( 50 - 50) =      4.00110  eV     1   --> B              
     e( 51 - 51) =      4.01084  eV     1   --> A              
     e( 52 - 52) =      4.75268  eV     1   --> A              
     e( 53 - 53) =      4.81452  eV     1   --> B              
     e( 54 - 54) =      4.91323  eV     1   --> A              
     e( 55 - 55) =      4.93920  eV     1   --> B              
     e( 56 - 56) =      5.03363  eV     1   --> A              
     e( 57 - 57) =      5.17199  eV     1   --> B              
     e( 58 - 58) =      5.45913  eV     1   --> A              
     e( 59 - 59) =      5.49995  eV     1   --> B              
     e( 60 - 60) =      5.51749  eV     1   --> A              
     e( 61 - 61) =      5.58783  eV     1   --> B              
     e( 62 - 62) =      5.78565  eV     1   --> A              
     e( 63 - 63) =      5.88059  eV     1   --> B              
     e( 64 - 64) =      5.88544  eV     1   --> A              
     e( 65 - 65) =      5.92295  eV     1   --> B              
     e( 66 - 66) =      6.22512  eV     1   --> B              
     e( 67 - 67) =      6.26748  eV     1   --> A              
     e( 68 - 68) =      6.28361  eV     1   --> B              
     e( 69 - 69) =      6.81891  eV     1   --> B              
     e( 70 - 70) =      6.82005  eV     1   --> A              
     e( 71 - 71) =      6.83727  eV     1   --> A              
     e( 72 - 72) =      6.88737  eV     1   --> A              
     e( 73 - 73) =      6.88867  eV     1   --> A              
     e( 74 - 74) =      6.90477  eV     1   --> B              
     e( 75 - 75) =      7.05790  eV     1   --> B              
     e( 76 - 76) =      7.25208  eV     1   --> B              
     e( 77 - 77) =      7.28577  eV     1   --> A              
     e( 78 - 78) =      7.32852  eV     1   --> A              
     e( 79 - 79) =      7.45686  eV     1   --> B              
     e( 80 - 80) =      7.51164  eV     1   --> A              
     e( 81 - 81) =      7.73160  eV     1   --> B              
     e( 82 - 82) =      7.74437  eV     1   --> B              
     e( 83 - 83) =      7.77595  eV     1   --> B              
     e( 84 - 84) =      7.88582  eV     1   --> A              
     e( 85 - 85) =      8.09548  eV     1   --> B              
     e( 86 - 86) =      8.39998  eV     1   --> A              
     e( 87 - 87) =      8.45421  eV     1   --> A              
     e( 88 - 88) =      8.53256  eV     1   --> B              
     e( 89 - 89) =      8.64025  eV     1   --> B              
     e( 90 - 90) =      8.71156  eV     1   --> A              
     e( 91 - 91) =      8.84929  eV     1   --> A              
     e( 92 - 92) =      9.17889  eV     1   --> A              
     e( 93 - 93) =      9.25186  eV     1   --> A              
     e( 94 - 94) =      9.41858  eV     1   --> B              
     e( 95 - 95) =      9.47271  eV     1   --> B              
     e( 96 - 96) =      9.54696  eV     1   --> B              
     e( 97 - 97) =      9.57750  eV     1   --> A              
     e( 98 - 98) =      9.58321  eV     1   --> B              
     e( 99 - 99) =      9.89242  eV     1   --> A              
     e(100 -100) =     10.10115  eV     1   --> A              
     e(101 -101) =     10.11328  eV     1   --> B              
     e(102 -102) =     10.21644  eV     1   --> B              
     e(103 -103) =     10.47680  eV     1   --> A              
     e(104 -104) =     10.50780  eV     1   --> B              
     e(105 -105) =     10.61186  eV     1   --> A              
     e(106 -106) =     11.16584  eV     1   --> B              
     e(107 -107) =     11.64131  eV     1   --> B              
     e(108 -108) =     11.71126  eV     1   --> A              
     e(109 -109) =     12.81061  eV     1   --> A              
     e(110 -110) =     12.82242  eV     1   --> B              
     e(111 -111) =     12.89402  eV     1   --> A              
     e(112 -112) =     12.90394  eV     1   --> A              
     e(113 -113) =     12.93833  eV     1   --> B              
     e(114 -114) =     13.12539  eV     1   --> B              
     e(115 -115) =     13.17244  eV     1   --> A              
     e(116 -116) =     13.18955  eV     1   --> A              
     e(117 -117) =     13.31564  eV     1   --> B              
     e(118 -118) =     13.41628  eV     1   --> B              
     e(119 -119) =     13.41956  eV     1   --> B              
     e(120 -120) =     13.43623  eV     1   --> A              
     e(121 -121) =     13.57666  eV     1   --> A              
     e(122 -122) =     13.65948  eV     1   --> A              
     e(123 -123) =     13.79962  eV     1   --> A              
     e(124 -124) =     14.15929  eV     1   --> B              
     e(125 -125) =     14.29319  eV     1   --> A              
     e(126 -126) =     14.36446  eV     1   --> B              
     e(127 -127) =     14.52277  eV     1   --> B              
     e(128 -128) =     14.54845  eV     1   --> A              
     e(129 -129) =     14.59039  eV     1   --> A              
     e(130 -130) =     14.71098  eV     1   --> B              

 **************************************************************************

 **************************************************************************

                    xk=(   0.00000,   0.24881,   0.00000  )

     Band symmetry, C_2  (2)    point group:

     e(  1 -  2) =    -63.65546  eV     2   --> A              
     e(  1 -  2) =    -63.65546  eV     2   --> B              
     e(  3 -  4) =    -63.62983  eV     2   --> A              
     e(  3 -  4) =    -63.62983  eV     2   --> B              
     e(  5 -  6) =    -63.62028  eV     2   --> A              
     e(  5 -  6) =    -63.62028  eV     2   --> B              
     e(  7 -  8) =    -63.60746  eV     2   --> A              
     e(  7 -  8) =    -63.60746  eV     2   --> B              
     e(  9 - 10) =    -28.15385  eV     2   --> A              
     e(  9 - 10) =    -28.15385  eV     2   --> B              
     e( 11 - 12) =    -28.15203  eV     2   --> A              
     e( 11 - 12) =    -28.15203  eV     2   --> B              
     e( 13 - 14) =    -28.10950  eV     2   --> A              
     e( 13 - 14) =    -28.10950  eV     2   --> B              
     e( 15 - 16) =    -27.95530  eV     2   --> A              
     e( 15 - 16) =    -27.95530  eV     2   --> B              
     e( 17 - 18) =    -27.89785  eV     2   --> A              
     e( 17 - 18) =    -27.89785  eV     2   --> B              
     e( 19 - 20) =    -27.84123  eV     2   --> A              
     e( 19 - 20) =    -27.84123  eV     2   --> B              
     e( 21 - 22) =    -27.83469  eV     2   --> A              
     e( 21 - 22) =    -27.83469  eV     2   --> B              
     e( 23 - 24) =    -27.75640  eV     2   --> A              
     e( 23 - 24) =    -27.75640  eV     2   --> B              
     e( 25 - 26) =    -27.73491  eV     2   --> A              
     e( 25 - 26) =    -27.73491  eV     2   --> B              
     e( 27 - 28) =    -27.67762  eV     2   --> A              
     e( 27 - 28) =    -27.67762  eV     2   --> B              
     e( 29 - 30) =    -27.62818  eV     2   --> A              
     e( 29 - 30) =    -27.62818  eV     2   --> B              
     e( 31 - 32) =    -27.54711  eV     2   --> A              
     e( 31 - 32) =    -27.54711  eV     2   --> B              
     e( 33 - 33) =     -4.12896  eV     1   --> A              
     e( 34 - 34) =     -3.85440  eV     1   --> B              
     e( 35 - 35) =     -2.83387  eV     1   --> A              
     e( 36 - 36) =     -2.56779  eV     1   --> B              
     e( 37 - 37) =     -2.42213  eV     1   --> A              
     e( 38 - 38) =     -2.32342  eV     1   --> A              
     e( 39 - 39) =     -2.21355  eV     1   --> B              
     e( 40 - 40) =     -2.12482  eV     1   --> B              
     e( 41 - 41) =     -1.95965  eV     1   --> A              
     e( 42 - 42) =     -1.95151  eV     1   --> B              
     e( 43 - 43) =     -1.90499  eV     1   --> B              
     e( 44 - 44) =     -1.87591  eV     1   --> A              
     e( 45 - 45) =     -1.84554  eV     1   --> B              
     e( 46 - 46) =     -1.75570  eV     1   --> A              
     e( 47 - 47) =     -1.60861  eV     1   --> A              
     e( 48 - 48) =     -1.57085  eV     1   --> B              
     e( 49 - 49) =      4.00514  eV     1   --> A              
     e( 50 - 50) =      4.02364  eV     1   --> B              
     e( 51 - 51) =      4.03216  eV     1   --> A              
     e( 52 - 52) =      4.75291  eV     1   --> A              
     e( 53 - 53) =      4.83476  eV     1   --> B              
     e( 54 - 54) =      4.93950  eV     1   --> A              
     e( 55 - 55) =      4.97392  eV     1   --> B              
     e( 56 - 56) =      4.99884  eV     1   --> A              
     e( 57 - 57) =      5.19134  eV     1   --> B              
     e( 58 - 58) =      5.45018  eV     1   --> A              
     e( 59 - 59) =      5.47008  eV     1   --> B              
     e( 60 - 60) =      5.59226  eV     1   --> B              
     e( 61 - 61) =      5.60034  eV     1   --> A              
     e( 62 - 62) =      5.78302  eV     1   --> A              
     e( 63 - 63) =      5.84780  eV     1   --> A              
     e( 64 - 64) =      5.85899  eV     1   --> B              
     e( 65 - 65) =      5.92759  eV     1   --> B              
     e( 66 - 66) =      6.26390  eV     1   --> B              
     e( 67 - 67) =      6.30208  eV     1   --> A              
     e( 68 - 68) =      6.32992  eV     1   --> B              
     e( 69 - 69) =      6.78696  eV     1   --> A              
     e( 70 - 70) =      6.79278  eV     1   --> B              
     e( 71 - 71) =      6.81995  eV     1   --> A              
     e( 72 - 72) =      6.84775  eV     1   --> A              
     e( 73 - 73) =      6.84960  eV     1   --> A              
     e( 74 - 74) =      6.87967  eV     1   --> B              
     e( 75 - 75) =      6.98143  eV     1   --> B              
     e( 76 - 76) =      7.30344  eV     1   --> B              
     e( 77 - 77) =      7.33384  eV     1   --> A              
     e( 78 - 78) =      7.36867  eV     1   --> A              
     e( 79 - 79) =      7.43914  eV     1   --> B              
     e( 80 - 80) =      7.51727  eV     1   --> A              
     e( 81 - 81) =      7.74070  eV     1   --> B              
     e( 82 - 82) =      7.76898  eV     1   --> B              
     e( 83 - 83) =      7.79543  eV     1   --> B              
     e( 84 - 84) =      7.90797  eV     1   --> A              
     e( 85 - 85) =      8.02853  eV     1   --> B              
     e( 86 - 86) =      8.35132  eV     1   --> A              
     e( 87 - 87) =      8.43975  eV     1   --> A              
     e( 88 - 88) =      8.53358  eV     1   --> B              
     e( 89 - 89) =      8.56409  eV     1   --> B              
     e( 90 - 90) =      8.60589  eV     1   --> A              
     e( 91 - 91) =      8.89477  eV     1   --> A              
     e( 92 - 92) =      9.18875  eV     1   --> A              
     e( 93 - 93) =      9.27504  eV     1   --> A              
     e( 94 - 94) =      9.42700  eV     1   --> B              
     e( 95 - 95) =      9.49907  eV     1   --> B              
     e( 96 - 96) =      9.56135  eV     1   --> B              
     e( 97 - 97) =      9.62505  eV     1   --> B              
     e( 98 - 98) =      9.63614  eV     1   --> A              
     e( 99 - 99) =      9.85295  eV     1   --> A              
     e(100 -100) =      9.96692  eV     1   --> B              
     e(101 -101) =     10.03620  eV     1   --> A              
     e(102 -102) =     10.20781  eV     1   --> B              
     e(103 -103) =     10.39578  eV     1   --> A              
     e(104 -104) =     10.51952  eV     1   --> B              
     e(105 -105) =     10.66204  eV     1   --> A              
     e(106 -106) =     11.21603  eV     1   --> B              
     e(107 -107) =     11.66203  eV     1   --> B              
     e(108 -108) =     11.74955  eV     1   --> A              
     e(109 -109) =     12.73049  eV     1   --> B              
     e(110 -110) =     12.83968  eV     1   --> A              
     e(111 -111) =     12.85011  eV     1   --> A              
     e(112 -112) =     12.85238  eV     1   --> A              
     e(113 -113) =     12.97416  eV     1   --> B              
     e(114 -114) =     13.10404  eV     1   --> B              
     e(115 -115) =     13.18032  eV     1   --> A              
     e(116 -116) =     13.19064  eV     1   --> A              
     e(117 -117) =     13.32514  eV     1   --> B              
     e(118 -118) =     13.42613  eV     1   --> B              
     e(119 -119) =     13.43228  eV     1   --> A              
     e(120 -120) =     13.44232  eV     1   --> B              
     e(121 -121) =     13.58993  eV     1   --> A              
     e(122 -122) =     13.68671  eV     1   --> A              
     e(123 -123) =     13.80094  eV     1   --> A              
     e(124 -124) =     14.10124  eV     1   --> B              
     e(125 -125) =     14.24669  eV     1   --> A              
     e(126 -126) =     14.34789  eV     1   --> B              
     e(127 -127) =     14.51771  eV     1   --> A              
     e(128 -128) =     14.54070  eV     1   --> B              
     e(129 -129) =     14.60639  eV     1   --> A              
     e(130 -130) =     14.69785  eV     1   --> B              

 **************************************************************************

 **************************************************************************

                    xk=(   0.00000,   0.29857,   0.00000  )

     Band symmetry, C_2  (2)    point group:

     e(  1 -  2) =    -63.65514  eV     2   --> A              
     e(  1 -  2) =    -63.65514  eV     2   --> B              
     e(  3 -  4) =    -63.63089  eV     2   --> A              
     e(  3 -  4) =    -63.63089  eV     2   --> B              
     e(  5 -  6) =    -63.61945  eV     2   --> A              
     e(  5 -  6) =    -63.61945  eV     2   --> B              
     e(  7 -  8) =    -63.60755  eV     2   --> A              
     e(  7 -  8) =    -63.60755  eV     2   --> B              
     e(  9 - 10) =    -28.15110  eV     2   --> A              
     e(  9 - 10) =    -28.15110  eV     2   --> B              
     e( 11 - 12) =    -28.14938  eV     2   --> A              
     e( 11 - 12) =    -28.14938  eV     2   --> B              
     e( 13 - 14) =    -28.10890  eV     2   --> A              
     e( 13 - 14) =    -28.10890  eV     2   --> B              
     e( 15 - 16) =    -27.95964  eV     2   --> A              
     e( 15 - 16) =    -27.95964  eV     2   --> B              
     e( 17 - 18) =    -27.89678  eV     2   --> A              
     e( 17 - 18) =    -27.89678  eV     2   --> B              
     e( 19 - 20) =    -27.84267  eV     2   --> A              
     e( 19 - 20) =    -27.84267  eV     2   --> B              
     e( 21 - 22) =    -27.83471  eV     2   --> A              
     e( 21 - 22) =    -27.83471  eV     2   --> B              
     e( 23 - 24) =    -27.75986  eV     2   --> A              
     e( 23 - 24) =    -27.75986  eV     2   --> B              
     e( 25 - 26) =    -27.73385  eV     2   --> A              
     e( 25 - 26) =    -27.73385  eV     2   --> B              
     e( 27 - 28) =    -27.68177  eV     2   --> A              
     e( 27 - 28) =    -27.68177  eV     2   --> B              
     e( 29 - 30) =    -27.62297  eV     2   --> A              
     e( 29 - 30) =    -27.62297  eV     2   --> B              
     e( 31 - 32) =    -27.54726  eV     2   --> A              
     e( 31 - 32) =    -27.54726  eV     2   --> B              
     e( 33 - 33) =     -4.10743  eV     1   --> A              
     e( 34 - 34) =     -3.83277  eV     1   --> B              
     e( 35 - 35) =     -2.82604  eV     1   --> A              
     e( 36 - 36) =     -2.55755  eV     1   --> B              
     e( 37 - 37) =     -2.47332  eV     1   --> A              
     e( 38 - 38) =     -2.33768  eV     1   --> A              
     e( 39 - 39) =     -2.25564  eV     1   --> B              
     e( 40 - 40) =     -2.13147  eV     1   --> B              
     e( 41 - 41) =     -1.94980  eV     1   --> B              
     e( 42 - 42) =     -1.94819  eV     1   --> A              
     e( 43 - 43) =     -1.89861  eV     1   --> B              
     e( 44 - 44) =     -1.88163  eV     1   --> A              
     e( 45 - 45) =     -1.86308  eV     1   --> B              
     e( 46 - 46) =     -1.75641  eV     1   --> A              
     e( 47 - 47) =     -1.58447  eV     1   --> A              
     e( 48 - 48) =     -1.55616  eV     1   --> B              
     e( 49 - 49) =      4.02666  eV     1   --> A              
     e( 50 - 50) =      4.05098  eV     1   --> B              
     e( 51 - 51) =      4.05804  eV     1   --> A              
     e( 52 - 52) =      4.75618  eV     1   --> A              
     e( 53 - 53) =      4.86434  eV     1   --> B              
     e( 54 - 54) =      4.96250  eV     1   --> A              
     e( 55 - 55) =      4.97349  eV     1   --> A              
     e( 56 - 56) =      5.00625  eV     1   --> B              
     e( 57 - 57) =      5.21439  eV     1   --> B              
     e( 58 - 58) =      5.43860  eV     1   --> B              
     e( 59 - 59) =      5.43945  eV     1   --> A              
     e( 60 - 60) =      5.60486  eV     1   --> B              
     e( 61 - 61) =      5.68544  eV     1   --> A              
     e( 62 - 62) =      5.77885  eV     1   --> A              
     e( 63 - 63) =      5.81558  eV     1   --> A              
     e( 64 - 64) =      5.83321  eV     1   --> B              
     e( 65 - 65) =      5.93280  eV     1   --> B              
     e( 66 - 66) =      6.30826  eV     1   --> B              
     e( 67 - 67) =      6.31860  eV     1   --> A              
     e( 68 - 68) =      6.37610  eV     1   --> B              
     e( 69 - 69) =      6.75439  eV     1   --> A              
     e( 70 - 70) =      6.77192  eV     1   --> B              
     e( 71 - 71) =      6.80660  eV     1   --> A              
     e( 72 - 72) =      6.81883  eV     1   --> A              
     e( 73 - 73) =      6.82064  eV     1   --> A              
     e( 74 - 74) =      6.85109  eV     1   --> B              
     e( 75 - 75) =      6.90866  eV     1   --> B              
     e( 76 - 76) =      7.35501  eV     1   --> B              
     e( 77 - 77) =      7.38026  eV     1   --> A              
     e( 78 - 78) =      7.39999  eV     1   --> A              
     e( 79 - 79) =      7.41439  eV     1   --> B              
     e( 80 - 80) =      7.52348  eV     1   --> A              
     e( 81 - 81) =      7.73588  eV     1   --> B              
     e( 82 - 82) =      7.80184  eV     1   --> B              
     e( 83 - 83) =      7.81291  eV     1   --> B              
     e( 84 - 84) =      7.91168  eV     1   --> A              
     e( 85 - 85) =      7.96689  eV     1   --> B              
     e( 86 - 86) =      8.30793  eV     1   --> A              
     e( 87 - 87) =      8.41819  eV     1   --> B              
     e( 88 - 88) =      8.42177  eV     1   --> A              
     e( 89 - 89) =      8.51576  eV     1   --> A              
     e( 90 - 90) =      8.59304  eV     1   --> B              
     e( 91 - 91) =      8.93428  eV     1   --> A              
     e( 92 - 92) =      9.20484  eV     1   --> A              
     e( 93 - 93) =      9.30138  eV     1   --> A              
     e( 94 - 94) =      9.40997  eV     1   --> B              
     e( 95 - 95) =      9.53390  eV     1   --> B              
     e( 96 - 96) =      9.58883  eV     1   --> B              
     e( 97 - 97) =      9.67038  eV     1   --> B              
     e( 98 - 98) =      9.67939  eV     1   --> A              
     e( 99 - 99) =      9.79406  eV     1   --> A              
     e(100 -100) =      9.81429  eV     1   --> B              
     e(101 -101) =      9.97513  eV     1   --> A              
     e(102 -102) =     10.20288  eV     1   --> B              
     e(103 -103) =     10.32050  eV     1   --> A              
     e(104 -104) =     10.53173  eV     1   --> B              
     e(105 -105) =     10.71315  eV     1   --> A              
     e(106 -106) =     11.24153  eV     1   --> B              
     e(107 -107) =     11.69906  eV     1   --> B              
     e(108 -108) =     11.78550  eV     1   --> A              
     e(109 -109) =     12.63112  eV     1   --> B              
     e(110 -110) =     12.77021  eV     1   --> A              
     e(111 -111) =     12.80650  eV     1   --> A              
     e(112 -112) =     12.89975  eV     1   --> A              
     e(113 -113) =     13.01541  eV     1   --> B              
     e(114 -114) =     13.07545  eV     1   --> B              
     e(115 -115) =     13.15785  eV     1   --> A              
     e(116 -116) =     13.20720  eV     1   --> A              
     e(117 -117) =     13.33829  eV     1   --> B              
     e(118 -118) =     13.42809  eV     1   --> A              
     e(119 -119) =     13.43539  eV     1   --> B              
     e(120 -120) =     13.46934  eV     1   --> B              
     e(121 -121) =     13.61192  eV     1   --> A              
     e(122 -122) =     13.71690  eV     1   --> A              
     e(123 -123) =     13.80160  eV     1   --> A              
     e(124 -124) =     14.04453  eV     1   --> B              
     e(125 -125) =     14.19403  eV     1   --> A              
     e(126 -126) =     14.33117  eV     1   --> B              
     e(127 -127) =     14.48727  eV     1   --> A              
     e(128 -128) =     14.55574  eV     1   --> B              
     e(129 -129) =     14.62826  eV     1   --> A              
     e(130 -130) =     14.67004  eV     1   --> B              

 **************************************************************************

 **************************************************************************

                    xk=(   0.00000,   0.34833,   0.00000  )

     Band symmetry, C_2  (2)    point group:

     e(  1 -  2) =    -63.65477  eV     2   --> A              
     e(  1 -  2) =    -63.65477  eV     2   --> B              
     e(  3 -  4) =    -63.63195  eV     2   --> A              
     e(  3 -  4) =    -63.63195  eV     2   --> B              
     e(  5 -  6) =    -63.61865  eV     2   --> A              
     e(  5 -  6) =    -63.61865  eV     2   --> B              
     e(  7 -  8) =    -63.60766  eV     2   --> A              
     e(  7 -  8) =    -63.60766  eV     2   --> B              
     e(  9 - 10) =    -28.14779  eV     2   --> A              
     e(  9 - 10) =    -28.14779  eV     2   --> B              
     e( 11 - 12) =    -28.14643  eV     2   --> A              
     e( 11 - 12) =    -28.14643  eV     2   --> B              
     e( 13 - 14) =    -28.10822  eV     2   --> A              
     e( 13 - 14) =    -28.10822  eV     2   --> B              
     e( 15 - 16) =    -27.96462  eV     2   --> A              
     e( 15 - 16) =    -27.96462  eV     2   --> B              
     e( 17 - 18) =    -27.89557  eV     2   --> A              
     e( 17 - 18) =    -27.89557  eV     2   --> B              
     e( 19 - 20) =    -27.84424  eV     2   --> A              
     e( 19 - 20) =    -27.84424  eV     2   --> B              
     e( 21 - 22) =    -27.83478  eV     2   --> A              
     e( 21 - 22) =    -27.83478  eV     2   --> B              
     e( 23 - 24) =    -27.76363  eV     2   --> A              
     e( 23 - 24) =    -27.76363  eV     2   --> B              
     e( 25 - 26) =    -27.73284  eV     2   --> A              
     e( 25 - 26) =    -27.73284  eV     2   --> B              
     e( 27 - 28) =    -27.68572  eV     2   --> A              
     e( 27 - 28) =    -27.68572  eV     2   --> B              
     e( 29 - 30) =    -27.61781  eV     2   --> A              
     e( 29 - 30) =    -27.61781  eV     2   --> B              
     e( 31 - 32) =    -27.54747  eV     2   --> A              
     e( 31 - 32) =    -27.54747  eV     2   --> B              
     e( 33 - 33) =     -4.08212  eV     1   --> A              
     e( 34 - 34) =     -3.80733  eV     1   --> B              
     e( 35 - 35) =     -2.81690  eV     1   --> A              
     e( 36 - 36) =     -2.54569  eV     1   --> B              
     e( 37 - 37) =     -2.53096  eV     1   --> A              
     e( 38 - 38) =     -2.35341  eV     1   --> A              
     e( 39 - 39) =     -2.30506  eV     1   --> B              
     e( 40 - 40) =     -2.13920  eV     1   --> B              
     e( 41 - 41) =     -1.94784  eV     1   --> B              
     e( 42 - 42) =     -1.93482  eV     1   --> A              
     e( 43 - 43) =     -1.89106  eV     1   --> B              
     e( 44 - 44) =     -1.88316  eV     1   --> A              
     e( 45 - 45) =     -1.87617  eV     1   --> B              
     e( 46 - 46) =     -1.75731  eV     1   --> A              
     e( 47 - 47) =     -1.56434  eV     1   --> A              
     e( 48 - 48) =     -1.54574  eV     1   --> B              
     e( 49 - 49) =      4.05166  eV     1   --> A              
     e( 50 - 50) =      4.08299  eV     1   --> B              
     e( 51 - 51) =      4.08835  eV     1   --> A              
     e( 52 - 52) =      4.75890  eV     1   --> A              
     e( 53 - 53) =      4.90314  eV     1   --> B              
     e( 54 - 54) =      4.96131  eV     1   --> A              
     e( 55 - 55) =      4.98117  eV     1   --> A              
     e( 56 - 56) =      5.03397  eV     1   --> B              
     e( 57 - 57) =      5.24067  eV     1   --> B              
     e( 58 - 58) =      5.40617  eV     1   --> B              
     e( 59 - 59) =      5.42709  eV     1   --> A              
     e( 60 - 60) =      5.62824  eV     1   --> B              
     e( 61 - 61) =      5.74351  eV     1   --> A              
     e( 62 - 62) =      5.77269  eV     1   --> A              
     e( 63 - 63) =      5.80399  eV     1   --> B              
     e( 64 - 64) =      5.81707  eV     1   --> A              
     e( 65 - 65) =      5.93830  eV     1   --> B              
     e( 66 - 66) =      6.31048  eV     1   --> A              
     e( 67 - 67) =      6.35672  eV     1   --> B              
     e( 68 - 68) =      6.41676  eV     1   --> B              
     e( 69 - 69) =      6.74586  eV     1   --> A              
     e( 70 - 70) =      6.75698  eV     1   --> B              
     e( 71 - 71) =      6.76762  eV     1   --> A              
     e( 72 - 72) =      6.79686  eV     1   --> A              
     e( 73 - 73) =      6.82001  eV     1   --> B              
     e( 74 - 74) =      6.82248  eV     1   --> A              
     e( 75 - 75) =      6.84412  eV     1   --> B              
     e( 76 - 76) =      7.38587  eV     1   --> B              
     e( 77 - 77) =      7.40580  eV     1   --> B              
     e( 78 - 78) =      7.42171  eV     1   --> A              
     e( 79 - 79) =      7.42493  eV     1   --> A              
     e( 80 - 80) =      7.52986  eV     1   --> A              
     e( 81 - 81) =      7.72976  eV     1   --> B              
     e( 82 - 82) =      7.81276  eV     1   --> B              
     e( 83 - 83) =      7.82831  eV     1   --> B              
     e( 84 - 84) =      7.88327  eV     1   --> A              
     e( 85 - 85) =      7.92558  eV     1   --> B              
     e( 86 - 86) =      8.27055  eV     1   --> A              
     e( 87 - 87) =      8.29598  eV     1   --> B              
     e( 88 - 88) =      8.40024  eV     1   --> A              
     e( 89 - 89) =      8.45362  eV     1   --> A              
     e( 90 - 90) =      8.62162  eV     1   --> B              
     e( 91 - 91) =      8.96823  eV     1   --> A              
     e( 92 - 92) =      9.22673  eV     1   --> A              
     e( 93 - 93) =      9.33091  eV     1   --> A              
     e( 94 - 94) =      9.37389  eV     1   --> B              
     e( 95 - 95) =      9.57567  eV     1   --> B              
     e( 96 - 96) =      9.62111  eV     1   --> B              
     e( 97 - 97) =      9.65700  eV     1   --> B              
     e( 98 - 98) =      9.69940  eV     1   --> A              
     e( 99 - 99) =      9.71188  eV     1   --> A              
     e(100 -100) =      9.71884  eV     1   --> B              
     e(101 -101) =      9.92631  eV     1   --> A              
     e(102 -102) =     10.20197  eV     1   --> B              
     e(103 -103) =     10.25765  eV     1   --> A              
     e(104 -104) =     10.54467  eV     1   --> B              
     e(105 -105) =     10.76543  eV     1   --> A              
     e(106 -106) =     11.24280  eV     1   --> B              
     e(107 -107) =     11.75148  eV     1   --> B              
     e(108 -108) =     11.81773  eV     1   --> A              
     e(109 -109) =     12.52589  eV     1   --> B              
     e(110 -110) =     12.69619  eV     1   --> A              
     e(111 -111) =     12.76348  eV     1   --> A              
     e(112 -112) =     12.95096  eV     1   --> A              
     e(113 -113) =     13.04190  eV     1   --> B              
     e(114 -114) =     13.06085  eV     1   --> B              
     e(115 -115) =     13.12464  eV     1   --> A              
     e(116 -116) =     13.22340  eV     1   --> A              
     e(117 -117) =     13.35455  eV     1   --> B              
     e(118 -118) =     13.42255  eV     1   --> A              
     e(119 -119) =     13.44784  eV     1   --> B              
     e(120 -120) =     13.49682  eV     1   --> B              
     e(121 -121) =     13.64132  eV     1   --> A              
     e(122 -122) =     13.74874  eV     1   --> A              
     e(123 -123) =     13.80129  eV     1   --> A              
     e(124 -124) =     13.99263  eV     1   --> B              
     e(125 -125) =     14.14110  eV     1   --> A              
     e(126 -126) =     14.31394  eV     1   --> B              
     e(127 -127) =     14.45988  eV     1   --> A              
     e(128 -128) =     14.56725  eV     1   --> B              
     e(129 -129) =     14.62272  eV     1   --> B              
     e(130 -130) =     14.65300  eV     1   --> A              

 **************************************************************************

 **************************************************************************

                    xk=(   0.00000,   0.39809,   0.00000  )

     Band symmetry, C_2  (2)    point group:

     e(  1 -  2) =    -63.65434  eV     2   --> A              
     e(  1 -  2) =    -63.65434  eV     2   --> B              
     e(  3 -  4) =    -63.63302  eV     2   --> A              
     e(  3 -  4) =    -63.63302  eV     2   --> B              
     e(  5 -  6) =    -63.61788  eV     2   --> A              
     e(  5 -  6) =    -63.61788  eV     2   --> B              
     e(  7 -  8) =    -63.60779  eV     2   --> A              
     e(  7 -  8) =    -63.60779  eV     2   --> B              
     e(  9 - 10) =    -28.14394  eV     2   --> A              
     e(  9 - 10) =    -28.14394  eV     2   --> B              
     e( 11 - 12) =    -28.14324  eV     2   --> A              
     e( 11 - 12) =    -28.14324  eV     2   --> B              
     e( 13 - 14) =    -28.10751  eV     2   --> A              
     e( 13 - 14) =    -28.10751  eV     2   --> B              
     e( 15 - 16) =    -27.97019  eV     2   --> A              
     e( 15 - 16) =    -27.97019  eV     2   --> B              
     e( 17 - 18) =    -27.89424  eV     2   --> A              
     e( 17 - 18) =    -27.89424  eV     2   --> B              
     e( 19 - 20) =    -27.84593  eV     2   --> A              
     e( 19 - 20) =    -27.84593  eV     2   --> B              
     e( 21 - 22) =    -27.83485  eV     2   --> A              
     e( 21 - 22) =    -27.83485  eV     2   --> B              
     e( 23 - 24) =    -27.76767  eV     2   --> A              
     e( 23 - 24) =    -27.76767  eV     2   --> B              
     e( 25 - 26) =    -27.73187  eV     2   --> A              
     e( 25 - 26) =    -27.73187  eV     2   --> B              
     e( 27 - 28) =    -27.68945  eV     2   --> A              
     e( 27 - 28) =    -27.68945  eV     2   --> B              
     e( 29 - 30) =    -27.61273  eV     2   --> A              
     e( 29 - 30) =    -27.61273  eV     2   --> B              
     e( 31 - 32) =    -27.54777  eV     2   --> A              
     e( 31 - 32) =    -27.54777  eV     2   --> B              
     e( 33 - 33) =     -4.05307  eV     1   --> A              
     e( 34 - 34) =     -3.77817  eV     1   --> B              
     e( 35 - 35) =     -2.80651  eV     1   --> A              
     e( 36 - 36) =     -2.59372  eV     1   --> A              
     e( 37 - 37) =     -2.53235  eV     1   --> B              
     e( 38 - 38) =     -2.37032  eV     1   --> A              
     e( 39 - 39) =     -2.36061  eV     1   --> B              
     e( 40 - 40) =     -2.14791  eV     1   --> B              
     e( 41 - 41) =     -1.94566  eV     1   --> B              
     e( 42 - 42) =     -1.91961  eV     1   --> A              
     e( 43 - 43) =     -1.88562  eV     1   --> B              
     e( 44 - 44) =     -1.88231  eV     1   --> B              
     e( 45 - 45) =     -1.88150  eV     1   --> A              
     e( 46 - 46) =     -1.75842  eV     1   --> A              
     e( 47 - 47) =     -1.54847  eV     1   --> A              
     e( 48 - 48) =     -1.53953  eV     1   --> B              
     e( 49 - 49) =      4.07993  eV     1   --> A              
     e( 50 - 50) =      4.11950  eV     1   --> B              
     e( 51 - 51) =      4.12297  eV     1   --> A              
     e( 52 - 52) =      4.75689  eV     1   --> A              
     e( 53 - 53) =      4.95085  eV     1   --> B              
     e( 54 - 54) =      4.96649  eV     1   --> A              
     e( 55 - 55) =      4.99490  eV     1   --> A              
     e( 56 - 56) =      5.05580  eV     1   --> B              
     e( 57 - 57) =      5.26949  eV     1   --> B              
     e( 58 - 58) =      5.37323  eV     1   --> B              
     e( 59 - 59) =      5.41331  eV     1   --> A              
     e( 60 - 60) =      5.66349  eV     1   --> B              
     e( 61 - 61) =      5.72464  eV     1   --> A              
     e( 62 - 62) =      5.76416  eV     1   --> A              
     e( 63 - 63) =      5.77245  eV     1   --> B              
     e( 64 - 64) =      5.90077  eV     1   --> A              
     e( 65 - 65) =      5.94376  eV     1   --> B              
     e( 66 - 66) =      6.27821  eV     1   --> A              
     e( 67 - 67) =      6.40813  eV     1   --> B              
     e( 68 - 68) =      6.44338  eV     1   --> B              
     e( 69 - 69) =      6.73260  eV     1   --> A              
     e( 70 - 70) =      6.74810  eV     1   --> B              
     e( 71 - 71) =      6.76042  eV     1   --> A              
     e( 72 - 72) =      6.78532  eV     1   --> A              
     e( 73 - 73) =      6.78743  eV     1   --> B              
     e( 74 - 74) =      6.79552  eV     1   --> B              
     e( 75 - 75) =      6.82582  eV     1   --> A              
     e( 76 - 76) =      7.35545  eV     1   --> B              
     e( 77 - 77) =      7.43351  eV     1   --> A              
     e( 78 - 78) =      7.45509  eV     1   --> B              
     e( 79 - 79) =      7.46801  eV     1   --> A              
     e( 80 - 80) =      7.53590  eV     1   --> A              
     e( 81 - 81) =      7.72219  eV     1   --> B              
     e( 82 - 82) =      7.78027  eV     1   --> B              
     e( 83 - 83) =      7.81572  eV     1   --> A              
     e( 84 - 84) =      7.84197  eV     1   --> B              
     e( 85 - 85) =      7.92525  eV     1   --> B              
     e( 86 - 86) =      8.16854  eV     1   --> B              
     e( 87 - 87) =      8.23956  eV     1   --> A              
     e( 88 - 88) =      8.37525  eV     1   --> A              
     e( 89 - 89) =      8.42530  eV     1   --> A              
     e( 90 - 90) =      8.65190  eV     1   --> B              
     e( 91 - 91) =      8.99819  eV     1   --> A              
     e( 92 - 92) =      9.25294  eV     1   --> A              
     e( 93 - 93) =      9.32418  eV     1   --> B              
     e( 94 - 94) =      9.36362  eV     1   --> A              
     e( 95 - 95) =      9.49623  eV     1   --> B              
     e( 96 - 96) =      9.60657  eV     1   --> A              
     e( 97 - 97) =      9.62272  eV     1   --> B              
     e( 98 - 98) =      9.65187  eV     1   --> B              
     e( 99 - 99) =      9.68705  eV     1   --> A              
     e(100 -100) =      9.77012  eV     1   --> B              
     e(101 -101) =      9.89989  eV     1   --> A              
     e(102 -102) =     10.20455  eV     1   --> B              
     e(103 -103) =     10.20914  eV     1   --> A              
     e(104 -104) =     10.55894  eV     1   --> B              
     e(105 -105) =     10.81919  eV     1   --> A              
     e(106 -106) =     11.22481  eV     1   --> B              
     e(107 -107) =     11.81442  eV     1   --> B              
     e(108 -108) =     11.84586  eV     1   --> A              
     e(109 -109) =     12.41626  eV     1   --> B              
     e(110 -110) =     12.61839  eV     1   --> A              
     e(111 -111) =     12.72105  eV     1   --> A              
     e(112 -112) =     13.00419  eV     1   --> A              
     e(113 -113) =     13.00516  eV     1   --> B              
     e(114 -114) =     13.08406  eV     1   --> A              
     e(115 -115) =     13.10923  eV     1   --> B              
     e(116 -116) =     13.24023  eV     1   --> A              
     e(117 -117) =     13.37357  eV     1   --> B              
     e(118 -118) =     13.41355  eV     1   --> A              
[...]
     e( 88 - 89) =      8.62538  eV     2   --> A'             
     e( 88 - 89) =      8.62538  eV     2   --> A''            
     e( 90 - 90) =      8.89753  eV     1   --> A'             
     e( 91 - 91) =      9.05979  eV     1   --> A''            
     e( 92 - 93) =      9.18998  eV     2   --> A'             
     e( 92 - 93) =      9.18998  eV     2   --> A''            
     e( 94 - 94) =      9.30727  eV     1   --> A''            
     e( 95 - 95) =      9.32949  eV     1   --> A'             
     e( 96 - 97) =      9.46539  eV     2   --> A'             
     e( 96 - 97) =      9.46539  eV     2   --> A''            
     e( 98 - 98) =      9.53177  eV     1   --> A'             
     e( 99 - 99) =      9.94071  eV     1   --> A'             
     e(100 -100) =     10.26918  eV     1   --> A'             
     e(101 -101) =     10.29105  eV     1   --> A'             
     e(102 -102) =     10.45658  eV     1   --> A''            
     e(103 -103) =     10.47822  eV     1   --> A''            
     e(104 -104) =     10.51144  eV     1   --> A''            
     e(105 -105) =     10.67741  eV     1   --> A''            
     e(106 -106) =     10.91726  eV     1   --> A'             
     e(107 -107) =     11.60748  eV     1   --> A'             
     e(108 -108) =     11.63040  eV     1   --> A'             
     e(109 -109) =     12.72956  eV     1   --> A'             
     e(110 -110) =     12.86837  eV     1   --> A'             
     e(111 -112) =     13.05709  eV     2   --> A'             
     e(111 -112) =     13.05709  eV     2   --> A''            
     e(113 -114) =     13.08548  eV     2   --> A'             
     e(113 -114) =     13.08548  eV     2   --> A''            
     e(115 -116) =     13.10821  eV     2   --> A'             
     e(115 -116) =     13.10821  eV     2   --> A''            
     e(117 -118) =     13.32918  eV     2   --> A'             
     e(117 -118) =     13.32918  eV     2   --> A''            
     e(119 -119) =     13.41075  eV     1   --> A''            
     e(120 -120) =     13.44677  eV     1   --> A''            
     e(121 -122) =     13.59391  eV     2   --> A'             
     e(121 -122) =     13.59391  eV     2   --> A''            
     e(123 -123) =     13.79985  eV     1   --> A'             
     e(124 -124) =     14.30620  eV     1   --> A''            
     e(125 -125) =     14.36139  eV     1   --> A'             
     e(126 -127) =     14.43487  eV     2   --> A'             
     e(126 -127) =     14.43487  eV     2   --> A''            
     e(128 -128) =     14.59426  eV     1   --> A''            
     e(129 -129) =     14.61695  eV     1   --> A''            
     e(130 -130) =     14.71624  eV     1   --> A'             

 **************************************************************************

 **************************************************************************

                    xk=(  -0.02474,   0.00000,  -0.01031  )

     Band symmetry, C_s (m)     point group:

     e(  1 -  2) =    -63.65620  eV     2   -->   2 A'             
     e(  3 -  6) =    -63.62480  eV     4   -->   2 A'             
     e(  3 -  6) =    -63.62480  eV     4   -->   2 A''            
     e(  7 -  8) =    -63.60725  eV     2   -->   2 A'             
     e(  9 - 12) =    -28.15926  eV     4   -->   2 A'             
     e(  9 - 12) =    -28.15926  eV     4   -->   2 A''            
     e( 13 - 14) =    -28.11102  eV     2   -->   2 A'             
     e( 15 - 16) =    -27.94491  eV     2   -->   2 A''            
     e( 17 - 18) =    -27.90057  eV     2   -->   2 A'             
     e( 19 - 22) =    -27.83618  eV     4   -->   2 A'             
     e( 19 - 22) =    -27.83618  eV     4   -->   2 A''            
     e( 23 - 24) =    -27.74551  eV     2   -->   2 A'             
     e( 25 - 26) =    -27.74008  eV     2   -->   2 A''            
     e( 27 - 30) =    -27.65414  eV     4   -->   2 A'             
     e( 27 - 30) =    -27.65414  eV     4   -->   2 A''            
     e( 31 - 32) =    -27.54691  eV     2   -->   2 A'             
     e( 33 - 33) =     -4.17789  eV     1   --> A'             
     e( 34 - 34) =     -3.90454  eV     1   --> A'             
     e( 35 - 35) =     -2.85127  eV     1   --> A'             
     e( 36 - 36) =     -2.59193  eV     1   --> A'             
     e( 37 - 37) =     -2.29364  eV     1   --> A''            
     e( 38 - 38) =     -2.29341  eV     1   --> A'             
     e( 39 - 39) =     -2.11681  eV     1   --> A''            
     e( 40 - 40) =     -2.11659  eV     1   --> A'             
     e( 41 - 41) =     -1.98848  eV     1   --> A'             
     e( 42 - 42) =     -1.95304  eV     1   --> A'             
     e( 43 - 43) =     -1.92009  eV     1   --> A'             
     e( 44 - 44) =     -1.76699  eV     1   --> A'             
     e( 45 - 45) =     -1.76685  eV     1   --> A''            
     e( 46 - 46) =     -1.75418  eV     1   --> A'             
     e( 47 - 47) =     -1.70044  eV     1   --> A'             
     e( 48 - 48) =     -1.70030  eV     1   --> A''            
     e( 49 - 49) =      3.95508  eV     1   --> A'             
     e( 50 - 50) =      3.96062  eV     1   --> A'             
     e( 51 - 51) =      3.97391  eV     1   --> A'             
     e( 52 - 52) =      4.80433  eV     1   --> A'             
     e( 53 - 53) =      4.80447  eV     1   --> A''            
     e( 54 - 55) =      4.82294  eV     2   --> A'             
     e( 54 - 55) =      4.82294  eV     2   --> A''            
     e( 56 - 56) =      5.13317  eV     1   --> A'             
     e( 57 - 57) =      5.23519  eV     1   --> A''            
     e( 58 - 58) =      5.23530  eV     1   --> A'             
     e( 59 - 59) =      5.47571  eV     1   --> A'             
     e( 60 - 61) =      5.58095  eV     2   --> A'             
     e( 60 - 61) =      5.58095  eV     2   --> A''            
     e( 62 - 62) =      5.78865  eV     1   --> A'             
     e( 63 - 63) =      5.91409  eV     1   --> A'             
     e( 64 - 64) =      5.91987  eV     1   --> A'             
     e( 65 - 66) =      6.06924  eV     2   --> A'             
     e( 65 - 66) =      6.06924  eV     2   --> A''            
     e( 67 - 68) =      6.16347  eV     2   --> A'             
     e( 67 - 68) =      6.16347  eV     2   --> A''            
     e( 69 - 69) =      6.82199  eV     1   --> A''            
     e( 70 - 70) =      6.91804  eV     1   --> A''            
     e( 71 - 71) =      6.95364  eV     1   --> A''            
     e( 72 - 72) =      6.98502  eV     1   --> A''            
     e( 73 - 74) =      7.06453  eV     2   --> A'             
     e( 73 - 74) =      7.06453  eV     2   --> A''            
     e( 75 - 75) =      7.11005  eV     1   --> A'             
     e( 76 - 76) =      7.11577  eV     1   --> A''            
     e( 77 - 77) =      7.11592  eV     1   --> A'             
     e( 78 - 79) =      7.35057  eV     2   --> A'             
     e( 78 - 79) =      7.35057  eV     2   --> A''            
     e( 80 - 80) =      7.50075  eV     1   --> A'             
     e( 81 - 82) =      7.69262  eV     2   --> A'             
     e( 81 - 82) =      7.69262  eV     2   --> A''            
     e( 83 - 83) =      7.74973  eV     1   --> A'             
     e( 84 - 84) =      7.80662  eV     1   --> A'             
     e( 85 - 85) =      8.35279  eV     1   --> A'             
     e( 86 - 86) =      8.35290  eV     1   --> A''            
     e( 87 - 87) =      8.47556  eV     1   --> A'             
     e( 88 - 89) =      8.62640  eV     2   --> A'             
     e( 88 - 89) =      8.62640  eV     2   --> A''            
     e( 90 - 90) =      8.89246  eV     1   --> A'             
     e( 91 - 91) =      9.05863  eV     1   --> A''            
     e( 92 - 93) =      9.18908  eV     2   --> A'             
     e( 92 - 93) =      9.18908  eV     2   --> A''            
     e( 94 - 94) =      9.30843  eV     1   --> A''            
     e( 95 - 95) =      9.32981  eV     1   --> A'             
     e( 96 - 97) =      9.46491  eV     2   --> A'             
     e( 96 - 97) =      9.46491  eV     2   --> A''            
     e( 98 - 98) =      9.54394  eV     1   --> A'             
     e( 99 - 99) =      9.94310  eV     1   --> A'             
     e(100 -100) =     10.25470  eV     1   --> A'             
     e(101 -101) =     10.29344  eV     1   --> A'             
     e(102 -102) =     10.45655  eV     1   --> A''            
     e(103 -103) =     10.47836  eV     1   --> A''            
     e(104 -104) =     10.51064  eV     1   --> A''            
     e(105 -105) =     10.67821  eV     1   --> A''            
     e(106 -106) =     10.91679  eV     1   --> A'             
     e(107 -107) =     11.60790  eV     1   --> A'             
     e(108 -108) =     11.63128  eV     1   --> A'             
     e(109 -109) =     12.72908  eV     1   --> A'             
     e(110 -110) =     12.86926  eV     1   --> A'             
     e(111 -112) =     13.05751  eV     2   --> A'             
     e(111 -112) =     13.05751  eV     2   --> A''            
     e(113 -114) =     13.08497  eV     2   --> A'             
     e(113 -114) =     13.08497  eV     2   --> A''            
     e(115 -116) =     13.10805  eV     2   --> A'             
     e(115 -116) =     13.10805  eV     2   --> A''            
     e(117 -118) =     13.33141  eV     2   --> A'             
     e(117 -118) =     13.33141  eV     2   --> A''            
     e(119 -119) =     13.41063  eV     1   --> A''            
     e(120 -120) =     13.44701  eV     1   --> A''            
     e(121 -122) =     13.59082  eV     2   --> A'             
     e(121 -122) =     13.59082  eV     2   --> A''            
     e(123 -123) =     13.79633  eV     1   --> A'             
     e(124 -124) =     14.30467  eV     1   --> A''            
     e(125 -125) =     14.36205  eV     1   --> A'             
     e(126 -127) =     14.43750  eV     2   --> A'             
     e(126 -127) =     14.43750  eV     2   --> A''            
     e(128 -128) =     14.59167  eV     1   --> A''            
     e(129 -129) =     14.61835  eV     1   --> A''            
     e(130 -130) =     14.71651  eV     1   --> A'             

 **************************************************************************

 **************************************************************************

                    xk=(   0.00000,   0.00000,   0.00000  )

     point group C_2h (2/m) 
     there are  4 classes
     the character table:

       E     C2    i     s_h  
A_g    1.00  1.00  1.00  1.00
B_g    1.00 -1.00  1.00 -1.00
A_u    1.00  1.00 -1.00 -1.00
B_u    1.00 -1.00 -1.00  1.00

     the symmetry operations in each class and the name of the first element:

     E        1
                                                                 
     C2       2
                                                                 
     i        3
                                                                 
     s_h      4
                                                                 

     Band symmetry, C_2h (2/m)  point group:

     e(  1 -  2) =    -63.65620  eV     2   --> A_g            
     e(  1 -  2) =    -63.65620  eV     2   --> B_u            
     e(  3 -  6) =    -63.62480  eV     4   --> A_g            
     e(  3 -  6) =    -63.62480  eV     4   --> B_g            
     e(  3 -  6) =    -63.62480  eV     4   --> A_u            
     e(  3 -  6) =    -63.62480  eV     4   --> B_u            
     e(  7 -  8) =    -63.60725  eV     2   --> A_g            
     e(  7 -  8) =    -63.60725  eV     2   --> B_u            
     e(  9 - 12) =    -28.15926  eV     4   --> A_g            
     e(  9 - 12) =    -28.15926  eV     4   --> B_g            
     e(  9 - 12) =    -28.15926  eV     4   --> A_u            
     e(  9 - 12) =    -28.15926  eV     4   --> B_u            
     e( 13 - 14) =    -28.11102  eV     2   --> A_g            
     e( 13 - 14) =    -28.11102  eV     2   --> B_u            
     e( 15 - 16) =    -27.94491  eV     2   --> B_g            
     e( 15 - 16) =    -27.94491  eV     2   --> A_u            
     e( 17 - 18) =    -27.90057  eV     2   --> A_g            
     e( 17 - 18) =    -27.90057  eV     2   --> B_u            
     e( 19 - 22) =    -27.83618  eV     4   --> A_g            
     e( 19 - 22) =    -27.83618  eV     4   --> B_g            
     e( 19 - 22) =    -27.83618  eV     4   --> A_u            
     e( 19 - 22) =    -27.83618  eV     4   --> B_u            
     e( 23 - 24) =    -27.74551  eV     2   --> A_g            
     e( 23 - 24) =    -27.74551  eV     2   --> B_u            
     e( 25 - 26) =    -27.74008  eV     2   --> B_g            
     e( 25 - 26) =    -27.74008  eV     2   --> A_u            
     e( 27 - 30) =    -27.65414  eV     4   --> A_g            
     e( 27 - 30) =    -27.65414  eV     4   --> B_g            
     e( 27 - 30) =    -27.65414  eV     4   --> A_u            
     e( 27 - 30) =    -27.65414  eV     4   --> B_u            
     e( 31 - 32) =    -27.54691  eV     2   --> A_g            
     e( 31 - 32) =    -27.54691  eV     2   --> B_u            
     e( 33 - 33) =     -4.17822  eV     1   --> A_g            
     e( 34 - 34) =     -3.90396  eV     1   --> B_u            
     e( 35 - 35) =     -2.85199  eV     1   --> A_g            
     e( 36 - 36) =     -2.59180  eV     1   --> B_u            
     e( 37 - 37) =     -2.29364  eV     1   --> A_u            
     e( 38 - 38) =     -2.29341  eV     1   --> A_g            
     e( 39 - 39) =     -2.11681  eV     1   --> B_g            
     e( 40 - 40) =     -2.11659  eV     1   --> B_u            
     e( 41 - 41) =     -1.98616  eV     1   --> A_g            
     e( 42 - 42) =     -1.95559  eV     1   --> B_u            
     e( 43 - 43) =     -1.91940  eV     1   --> B_u            
     e( 44 - 44) =     -1.76701  eV     1   --> A_g            
     e( 45 - 45) =     -1.76687  eV     1   --> A_u            
     e( 46 - 46) =     -1.75425  eV     1   --> A_g            
     e( 47 - 47) =     -1.70042  eV     1   --> B_u            
     e( 48 - 48) =     -1.70028  eV     1   --> B_g            
     e( 49 - 49) =      3.95504  eV     1   --> A_g            
     e( 50 - 50) =      3.96064  eV     1   --> B_u            
     e( 51 - 51) =      3.97260  eV     1   --> A_g            
     e( 52 - 52) =      4.80433  eV     1   --> A_g            
     e( 53 - 53) =      4.80446  eV     1   --> A_u            
     e( 54 - 55) =      4.82291  eV     2   --> B_g            
     e( 54 - 55) =      4.82291  eV     2   --> B_u            
     e( 56 - 56) =      5.13665  eV     1   --> B_u            
     e( 57 - 57) =      5.23489  eV     1   --> A_u            
     e( 58 - 58) =      5.23499  eV     1   --> A_g            
     e( 59 - 59) =      5.47538  eV     1   --> A_g            
     e( 60 - 61) =      5.58185  eV     2   --> B_g            
     e( 60 - 61) =      5.58185  eV     2   --> B_u            
     e( 62 - 62) =      5.78843  eV     1   --> A_g            
     e( 63 - 63) =      5.91385  eV     1   --> B_u            
     e( 64 - 64) =      5.91949  eV     1   --> B_u            
     e( 65 - 66) =      6.06863  eV     2   --> A_g            
     e( 65 - 66) =      6.06863  eV     2   --> A_u            
     e( 67 - 68) =      6.16344  eV     2   --> B_g            
     e( 67 - 68) =      6.16344  eV     2   --> B_u            
     e( 69 - 69) =      6.82185  eV     1   --> A_u            
     e( 70 - 70) =      6.91821  eV     1   --> B_g            
     e( 71 - 71) =      6.95359  eV     1   --> B_g            
     e( 72 - 72) =      6.98507  eV     1   --> A_u            
     e( 73 - 74) =      7.06424  eV     2   --> A_g            
     e( 73 - 74) =      7.06424  eV     2   --> A_u            
     e( 75 - 75) =      7.10825  eV     1   --> B_u            
     e( 76 - 76) =      7.11553  eV     1   --> A_u            
     e( 77 - 77) =      7.11568  eV     1   --> A_g            
     e( 78 - 79) =      7.35064  eV     2   --> B_g            
     e( 78 - 79) =      7.35064  eV     2   --> B_u            
     e( 80 - 80) =      7.50044  eV     1   --> A_g            
     e( 81 - 82) =      7.69346  eV     2   --> B_g            
     e( 81 - 82) =      7.69346  eV     2   --> B_u            
     e( 83 - 83) =      7.75025  eV     1   --> B_u            
     e( 84 - 84) =      7.80416  eV     1   --> A_g            
     e( 85 - 85) =      8.35254  eV     1   --> B_u            
     e( 86 - 86) =      8.35264  eV     1   --> B_g            
     e( 87 - 87) =      8.47914  eV     1   --> A_g            
     e( 88 - 89) =      8.62674  eV     2   --> A_g            
     e( 88 - 89) =      8.62674  eV     2   --> A_u            
     e( 90 - 90) =      8.89067  eV     1   --> B_u            
     e( 91 - 91) =      9.05825  eV     1   --> A_u            
     e( 92 - 93) =      9.18878  eV     2   --> A_g            
     e( 92 - 93) =      9.18878  eV     2   --> A_u            
     e( 94 - 94) =      9.30882  eV     1   --> B_g            
     e( 95 - 95) =      9.32991  eV     1   --> A_g            
     e( 96 - 97) =      9.46476  eV     2   --> B_g            
     e( 96 - 97) =      9.46476  eV     2   --> B_u            
     e( 98 - 98) =      9.54809  eV     1   --> B_u            
     e( 99 - 99) =      9.94404  eV     1   --> A_g            
     e(100 -100) =     10.24966  eV     1   --> B_u            
     e(101 -101) =     10.29423  eV     1   --> A_g            
     e(102 -102) =     10.45654  eV     1   --> A_u            
     e(103 -103) =     10.47841  eV     1   --> B_g            
     e(104 -104) =     10.51037  eV     1   --> B_g            
     e(105 -105) =     10.67847  eV     1   --> A_u            
     e(106 -106) =     10.91663  eV     1   --> B_u            
     e(107 -107) =     11.60805  eV     1   --> A_g            
     e(108 -108) =     11.63158  eV     1   --> B_u            
     e(109 -109) =     12.72892  eV     1   --> A_g            
     e(110 -110) =     12.86956  eV     1   --> B_u            
     e(111 -112) =     13.05765  eV     2   --> A_g            
     e(111 -112) =     13.05765  eV     2   --> A_u            
     e(113 -114) =     13.08480  eV     2   --> B_g            
     e(113 -114) =     13.08480  eV     2   --> B_u            
     e(115 -116) =     13.10800  eV     2   --> A_g            
     e(115 -116) =     13.10800  eV     2   --> A_u            
     e(117 -118) =     13.33216  eV     2   --> B_g            
     e(117 -118) =     13.33216  eV     2   --> B_u            
     e(119 -119) =     13.41059  eV     1   --> B_g            
     e(120 -120) =     13.44710  eV     1   --> A_u            
     e(121 -122) =     13.58977  eV     2   --> A_g            
     e(121 -122) =     13.58977  eV     2   --> A_u            
     e(123 -123) =     13.79516  eV     1   --> A_g            
     e(124 -124) =     14.30415  eV     1   --> B_g            
     e(125 -125) =     14.36226  eV     1   --> A_g            
     e(126 -127) =     14.43839  eV     2   --> B_g            
     e(126 -127) =     14.43839  eV     2   --> B_u            
     e(128 -128) =     14.59081  eV     1   --> A_u            
     e(129 -129) =     14.61882  eV     1   --> A_u            
     e(130 -130) =     14.71661  eV     1   --> B_u            

 **************************************************************************

     BANDS        :   8m 9.29s CPU  10m22.91s WALL


   This run was terminated on:  17:30:18   8Aug2023            

=------------------------------------------------------------------------------=
   JOB DONE.
=------------------------------------------------------------------------------=
