
     Program BANDS v.6.6 starts on  8Aug2023 at 17: 8:32 

     This program is part of the open-source Quantum ESPRESSO suite
     for quantum simulation of materials; please cite
         "P. Giannozzi et al., J. Phys.:Condens. Matter 21 395502 (2009);
         "P. Giannozzi et al., J. Phys.:Condens. Matter 29 465901 (2017);
          URL http://www.quantum-espresso.org", 
     in publications or presentations arising from this work. More details at
     http://www.quantum-espresso.org/quote

     Parallel version (MPI & OpenMP), running on     128 processor cores
     Number of MPI processes:               128
     Threads/MPI process:                     1

     MPI processes distributed on     1 nodes
     R & G space division:  proc/nbgrp/npool/nimage =     128
     Fft bands division:     nmany     =       1

     Reading xml data from directory:

     ./tmp/test_PBE.save/
     file W.pbe-spn-kjpaw_psl.1.0.0.UPF: wavefunction(s)  6S 5P 5D renormalized
     file S.pbe-n-kjpaw_psl.1.0.0.UPF: wavefunction(s)  3S 3P renormalized

     IMPORTANT: XC functional enforced from input :
     Exchange-correlation= PBE
                           (   1   4   3   4   0   0   0)
     Any further DFT definition will be discarded
     Please, verify this is what you really want


     Parallelization info
     --------------------
     sticks:   dense  smooth     PW     G-vecs:    dense   smooth      PW
     Min          92      74     20                 4403     3150     442
     Max          93      75     21                 4408     3153     445
     Sum       11885    9483   2581               564009   403427   56781

     Reading collected, re-writing distributed wavefunctions
     high-symmetry point:  0.0000 0.0000 0.0000   x coordinate   0.0000
     high-symmetry point:  0.0000 0.9952 0.0000   x coordinate   0.9952
     high-symmetry point: -0.0065 0.9952 1.2135   x coordinate   2.2087
     high-symmetry point: -0.0065 0.0000 1.2135   x coordinate   3.2040
     high-symmetry point:  0.0000 0.0000 0.0000   x coordinate   4.4175
     high-symmetry point: -0.5013 0.0000 1.0074   x coordinate   5.5427
     high-symmetry point: -0.5013 0.9952 1.0074   x coordinate   6.5379
     high-symmetry point:  0.0000 0.9952 0.0000   x coordinate   7.6631
     high-symmetry point: -0.4948 0.9952-0.2061   x coordinate   8.1991
     high-symmetry point: -0.4948 0.0000-0.2061   x coordinate   9.1944
     high-symmetry point:  0.0000 0.0000 0.0000   x coordinate   9.7304

     Plottable bands (eV) written to file bands-up.dat.gnu
     Bands written to file bands-up.dat

 **************************************************************************

                    xk=(   0.00000,   0.00000,   0.00000  )

     point group C_2h (2/m) 
     there are  4 classes
     the character table:

       E     C2    i     s_h  
A_g    1.00  1.00  1.00  1.00
B_g    1.00 -1.00  1.00 -1.00
A_u    1.00  1.00 -1.00 -1.00
B_u    1.00 -1.00 -1.00  1.00

     the symmetry operations in each class and the name of the first element:

     E        1
                                                                 
     C2       2
                                                                 
     i        3
                                                                 
     s_h      4
                                                                 

     Band symmetry, C_2h (2/m)  point group:

     e(  1 -  2) =    -63.65617  eV     2   --> A_g            
     e(  1 -  2) =    -63.65617  eV     2   --> B_u            
     e(  3 -  6) =    -63.62478  eV     4   --> A_g            
     e(  3 -  6) =    -63.62478  eV     4   --> B_g            
     e(  3 -  6) =    -63.62478  eV     4   --> A_u            
     e(  3 -  6) =    -63.62478  eV     4   --> B_u            
     e(  7 -  8) =    -63.60723  eV     2   --> A_g            
     e(  7 -  8) =    -63.60723  eV     2   --> B_u            
     e(  9 - 12) =    -28.15923  eV     4   --> A_g            
     e(  9 - 12) =    -28.15923  eV     4   --> B_g            
     e(  9 - 12) =    -28.15923  eV     4   --> A_u            
     e(  9 - 12) =    -28.15923  eV     4   --> B_u            
     e( 13 - 14) =    -28.11098  eV     2   --> A_g            
     e( 13 - 14) =    -28.11098  eV     2   --> B_u            
     e( 15 - 16) =    -27.94487  eV     2   --> B_g            
     e( 15 - 16) =    -27.94487  eV     2   --> A_u            
     e( 17 - 18) =    -27.90054  eV     2   --> A_g            
     e( 17 - 18) =    -27.90054  eV     2   --> B_u            
     e( 19 - 22) =    -27.83615  eV     4   --> A_g            
     e( 19 - 22) =    -27.83615  eV     4   --> B_g            
     e( 19 - 22) =    -27.83615  eV     4   --> A_u            
     e( 19 - 22) =    -27.83615  eV     4   --> B_u            
     e( 23 - 24) =    -27.74548  eV     2   --> A_g            
     e( 23 - 24) =    -27.74548  eV     2   --> B_u            
     e( 25 - 26) =    -27.74005  eV     2   --> B_g            
     e( 25 - 26) =    -27.74005  eV     2   --> A_u            
     e( 27 - 30) =    -27.65410  eV     4   --> A_g            
     e( 27 - 30) =    -27.65410  eV     4   --> B_g            
     e( 27 - 30) =    -27.65410  eV     4   --> A_u            
     e( 27 - 30) =    -27.65410  eV     4   --> B_u            
     e( 31 - 32) =    -27.54687  eV     2   --> A_g            
     e( 31 - 32) =    -27.54687  eV     2   --> B_u            
     e( 33 - 33) =     -4.17821  eV     1   --> A_g            
     e( 34 - 34) =     -3.90394  eV     1   --> B_u            
     e( 35 - 35) =     -2.85198  eV     1   --> A_g            
     e( 36 - 36) =     -2.59179  eV     1   --> B_u            
     e( 37 - 37) =     -2.29364  eV     1   --> A_u            
     e( 38 - 38) =     -2.29341  eV     1   --> A_g            
     e( 39 - 39) =     -2.11680  eV     1   --> B_g            
     e( 40 - 40) =     -2.11658  eV     1   --> B_u            
     e( 41 - 41) =     -1.98613  eV     1   --> A_g            
     e( 42 - 42) =     -1.95557  eV     1   --> B_u            
     e( 43 - 43) =     -1.91937  eV     1   --> B_u            
     e( 44 - 44) =     -1.76699  eV     1   --> A_g            
     e( 45 - 45) =     -1.76684  eV     1   --> A_u            
     e( 46 - 46) =     -1.75424  eV     1   --> A_g            
     e( 47 - 47) =     -1.70040  eV     1   --> B_u            
     e( 48 - 48) =     -1.70026  eV     1   --> B_g            
     e( 49 - 49) =      3.95504  eV     1   --> A_g            
     e( 50 - 50) =      3.96065  eV     1   --> B_u            
     e( 51 - 51) =      3.97261  eV     1   --> A_g            
     e( 52 - 52) =      4.80436  eV     1   --> A_g            
     e( 53 - 53) =      4.80449  eV     1   --> A_u            
     e( 54 - 55) =      4.82294  eV     2   --> B_g            
     e( 54 - 55) =      4.82294  eV     2   --> B_u            
     e( 56 - 56) =      5.13668  eV     1   --> B_u            
     e( 57 - 57) =      5.23491  eV     1   --> A_u            
     e( 58 - 58) =      5.23502  eV     1   --> A_g            
     e( 59 - 59) =      5.47537  eV     1   --> A_g            
     e( 60 - 61) =      5.58188  eV     2   --> B_g            
     e( 60 - 61) =      5.58188  eV     2   --> B_u            
     e( 62 - 62) =      5.78844  eV     1   --> A_g            
     e( 63 - 63) =      5.91386  eV     1   --> B_u            
     e( 64 - 64) =      5.91949  eV     1   --> B_u            
     e( 65 - 66) =      6.06864  eV     2   --> A_g            
     e( 65 - 66) =      6.06864  eV     2   --> A_u            
     e( 67 - 68) =      6.16345  eV     2   --> B_g            
     e( 67 - 68) =      6.16345  eV     2   --> B_u            
     e( 69 - 69) =      6.82189  eV     1   --> A_u            
     e( 70 - 70) =      6.91824  eV     1   --> B_g            
     e( 71 - 71) =      6.95364  eV     1   --> B_g            
     e( 72 - 72) =      6.98512  eV     1   --> A_u            
     e( 73 - 74) =      7.06425  eV     2   --> A_g            
     e( 73 - 74) =      7.06425  eV     2   --> A_u            
     e( 75 - 75) =      7.10825  eV     1   --> B_u            
     e( 76 - 76) =      7.11553  eV     1   --> A_u            
     e( 77 - 77) =      7.11568  eV     1   --> A_g            
     e( 78 - 79) =      7.35066  eV     2   --> B_g            
     e( 78 - 79) =      7.35066  eV     2   --> B_u            
     e( 80 - 80) =      7.50045  eV     1   --> A_g            
     e( 81 - 82) =      7.69347  eV     2   --> B_g            
     e( 81 - 82) =      7.69347  eV     2   --> B_u            
     e( 83 - 83) =      7.75026  eV     1   --> B_u            
     e( 84 - 84) =      7.80417  eV     1   --> A_g            
     e( 85 - 85) =      8.35255  eV     1   --> B_u            
     e( 86 - 86) =      8.35266  eV     1   --> B_g            
     e( 87 - 87) =      8.47915  eV     1   --> A_g            
     e( 88 - 89) =      8.62677  eV     2   --> A_g            
     e( 88 - 89) =      8.62677  eV     2   --> A_u            
     e( 90 - 90) =      8.89069  eV     1   --> B_u            
     e( 91 - 91) =      9.05829  eV     1   --> A_u            
     e( 92 - 93) =      9.18883  eV     2   --> A_g            
     e( 92 - 93) =      9.18883  eV     2   --> A_u            
     e( 94 - 94) =      9.30887  eV     1   --> B_g            
     e( 95 - 95) =      9.32992  eV     1   --> A_g            
     e( 96 - 97) =      9.46479  eV     2   --> B_g            
     e( 96 - 97) =      9.46479  eV     2   --> B_u            
     e( 98 - 98) =      9.54809  eV     1   --> B_u            
     e( 99 - 99) =      9.94408  eV     1   --> A_g            
     e(100 -100) =     10.24967  eV     1   --> B_u            
     e(101 -101) =     10.29424  eV     1   --> A_g            
     e(102 -102) =     10.45662  eV     1   --> A_u            
     e(103 -103) =     10.47848  eV     1   --> B_g            
     e(104 -104) =     10.51044  eV     1   --> B_g            
     e(105 -105) =     10.67854  eV     1   --> A_u            
     e(106 -106) =     10.91665  eV     1   --> B_u            
     e(107 -107) =     11.60808  eV     1   --> A_g            
     e(108 -108) =     11.63162  eV     1   --> B_u            
     e(109 -109) =     12.72896  eV     1   --> A_g            
     e(110 -110) =     12.86960  eV     1   --> B_u            
     e(111 -112) =     13.05769  eV     2   --> A_g            
     e(111 -112) =     13.05769  eV     2   --> A_u            
     e(113 -114) =     13.08484  eV     2   --> B_g            
     e(113 -114) =     13.08484  eV     2   --> B_u            
     e(115 -116) =     13.10803  eV     2   --> A_g            
     e(115 -116) =     13.10803  eV     2   --> A_u            
     e(117 -118) =     13.33219  eV     2   --> B_g            
     e(117 -118) =     13.33219  eV     2   --> B_u            
     e(119 -119) =     13.41066  eV     1   --> B_g            
     e(120 -120) =     13.44716  eV     1   --> A_u            
     e(121 -122) =     13.58979  eV     2   --> A_g            
     e(121 -122) =     13.58979  eV     2   --> A_u            
     e(123 -123) =     13.79517  eV     1   --> A_g            
     e(124 -124) =     14.30420  eV     1   --> B_g            
     e(125 -125) =     14.36228  eV     1   --> A_g            
     e(126 -127) =     14.43842  eV     2   --> B_g            
     e(126 -127) =     14.43842  eV     2   --> B_u            
     e(128 -128) =     14.59086  eV     1   --> A_u            
     e(129 -129) =     14.61887  eV     1   --> A_u            
     e(130 -130) =     14.71662  eV     1   --> B_u            

 **************************************************************************

 **************************************************************************

                    xk=(   0.00000,   0.04976,   0.00000  )

     point group C_2  (2)   
     there are  2 classes
     the character table:

       E     C2   
A      1.00  1.00
B      1.00 -1.00

     the symmetry operations in each class and the name of the first element:

     E        1
                                                                 
     C2       2
                                                                 

     Band symmetry, C_2  (2)    point group:

     e(  1 -  2) =    -63.65614  eV     2   --> A              
     e(  1 -  2) =    -63.65614  eV     2   --> B              
     e(  3 -  4) =    -63.62574  eV     2   --> A              
     e(  3 -  4) =    -63.62574  eV     2   --> B              
     e(  5 -  6) =    -63.62382  eV     2   --> A              
     e(  5 -  6) =    -63.62382  eV     2   --> B              
     e(  7 -  8) =    -63.60724  eV     2   --> A              
     e(  7 -  8) =    -63.60724  eV     2   --> B              
     e(  9 - 10) =    -28.15923  eV     2   --> A              
     e(  9 - 10) =    -28.15923  eV     2   --> B              
     e( 11 - 12) =    -28.15870  eV     2   --> A              
     e( 11 - 12) =    -28.15870  eV     2   --> B              
     e( 13 - 14) =    -28.11092  eV     2   --> A              
     e( 13 - 14) =    -28.11092  eV     2   --> B              
     e( 15 - 16) =    -27.94531  eV     2   --> A              
     e( 15 - 16) =    -27.94531  eV     2   --> B              
     e( 17 - 18) =    -27.90042  eV     2   --> A              
     e( 17 - 18) =    -27.90042  eV     2   --> B              
     e( 19 - 20) =    -27.83686  eV     2   --> A              
     e( 19 - 20) =    -27.83686  eV     2   --> B              
     e( 21 - 22) =    -27.83559  eV     2   --> A              
     e( 21 - 22) =    -27.83559  eV     2   --> B              
     e( 23 - 24) =    -27.74624  eV     2   --> A              
     e( 23 - 24) =    -27.74624  eV     2   --> B              
     e( 25 - 26) =    -27.73952  eV     2   --> A              
     e( 25 - 26) =    -27.73952  eV     2   --> B              
     e( 27 - 28) =    -27.65909  eV     2   --> A              
     e( 27 - 28) =    -27.65909  eV     2   --> B              
     e( 29 - 30) =    -27.64901  eV     2   --> A              
     e( 29 - 30) =    -27.64901  eV     2   --> B              
     e( 31 - 32) =    -27.54688  eV     2   --> A              
     e( 31 - 32) =    -27.54688  eV     2   --> B              
     e( 33 - 33) =     -4.17623  eV     1   --> A              
     e( 34 - 34) =     -3.90195  eV     1   --> B              
     e( 35 - 35) =     -2.85125  eV     1   --> A              
     e( 36 - 36) =     -2.59081  eV     1   --> B              
     e( 37 - 37) =     -2.30224  eV     1   --> A              
     e( 38 - 38) =     -2.29127  eV     1   --> A              
     e( 39 - 39) =     -2.12365  eV     1   --> B              
     e( 40 - 40) =     -2.11357  eV     1   --> B              
     e( 41 - 41) =     -1.98506  eV     1   --> A              
     e( 42 - 42) =     -1.95541  eV     1   --> B              
     e( 43 - 43) =     -1.91880  eV     1   --> B              
     e( 44 - 44) =     -1.79824  eV     1   --> A              
     e( 45 - 45) =     -1.75429  eV     1   --> A              
     e( 46 - 46) =     -1.73355  eV     1   -->   ?
     e( 47 - 47) =     -1.73313  eV     1   -->   ?
     e( 48 - 48) =     -1.66860  eV     1   --> B              
     e( 49 - 49) =      3.95708  eV     1   --> A              
     e( 50 - 50) =      3.96319  eV     1   --> B              
     e( 51 - 51) =      3.97501  eV     1   --> A              
     e( 52 - 52) =      4.78364  eV     1   --> A              
     e( 53 - 53) =      4.80832  eV     1   --> B              
     e( 54 - 54) =      4.82913  eV     1   --> A              
     e( 55 - 55) =      4.84477  eV     1   --> B              
     e( 56 - 56) =      5.13892  eV     1   --> B              
     e( 57 - 57) =      5.17672  eV     1   --> A              
     e( 58 - 58) =      5.29814  eV     1   --> A              
     e( 59 - 59) =      5.47434  eV     1   --> A              
     e( 60 - 60) =      5.56945  eV     1   --> B              
     e( 61 - 61) =      5.58814  eV     1   --> B              
     e( 62 - 62) =      5.78834  eV     1   --> A              
     e( 63 - 63) =      5.91446  eV     1   --> B              
     e( 64 - 64) =      5.91706  eV     1   --> B              
     e( 65 - 65) =      6.01864  eV     1   --> A              
     e( 66 - 66) =      6.12031  eV     1   --> A              
     e( 67 - 67) =      6.16129  eV     1   --> B              
     e( 68 - 68) =      6.17843  eV     1   --> B              
     e( 69 - 69) =      6.82171  eV     1   --> A              
     e( 70 - 70) =      6.90685  eV     1   --> B              
     e( 71 - 71) =      6.95042  eV     1   --> B              
     e( 72 - 72) =      6.97789  eV     1   --> A              
     e( 73 - 73) =      7.02490  eV     1   --> A              
     e( 74 - 74) =      7.02756  eV     1   --> A              
     e( 75 - 75) =      7.12239  eV     1   --> B              
     e( 76 - 76) =      7.13738  eV     1   --> A              
     e( 77 - 77) =      7.16801  eV     1   --> A              
     e( 78 - 78) =      7.28409  eV     1   --> B              
     e( 79 - 79) =      7.40681  eV     1   --> B              
     e( 80 - 80) =      7.50119  eV     1   --> A              
     e( 81 - 81) =      7.68130  eV     1   --> B              
     e( 82 - 82) =      7.71206  eV     1   --> B              
     e( 83 - 83) =      7.74992  eV     1   --> B              
     e( 84 - 84) =      7.81099  eV     1   --> A              
     e( 85 - 85) =      8.29321  eV     1   --> B              
     e( 86 - 86) =      8.40672  eV     1   --> B              
     e( 87 - 87) =      8.47762  eV     1   --> A              
     e( 88 - 88) =      8.56750  eV     1   --> A              
     e( 89 - 89) =      8.68593  eV     1   --> A              
     e( 90 - 90) =      8.87014  eV     1   --> B              
     e( 91 - 91) =      9.01769  eV     1   --> A              
     e( 92 - 92) =      9.18051  eV     1   --> A              
     e( 93 - 93) =      9.20026  eV     1   --> A              
     e( 94 - 94) =      9.32140  eV     1   --> B              
     e( 95 - 95) =      9.36388  eV     1   --> A              
     e( 96 - 96) =      9.45247  eV     1   --> B              
     e( 97 - 97) =      9.48522  eV     1   --> B              
     e( 98 - 98) =      9.54760  eV     1   --> B              
     e( 99 - 99) =      9.94147  eV     1   --> A              
     e(100 -100) =     10.24660  eV     1   --> B              
     e(101 -101) =     10.27294  eV     1   --> A              
     e(102 -102) =     10.47035  eV     1   --> B              
     e(103 -103) =     10.47517  eV     1   --> A              
     e(104 -104) =     10.48088  eV     1   --> B              
     e(105 -105) =     10.66312  eV     1   --> A              
     e(106 -106) =     10.94831  eV     1   --> B              
     e(107 -107) =     11.61660  eV     1   --> A              
     e(108 -108) =     11.63126  eV     1   --> B              
     e(109 -109) =     12.73436  eV     1   --> A              
     e(110 -110) =     12.87410  eV     1   --> B              
     e(111 -111) =     13.02109  eV     1   --> A              
     e(112 -112) =     13.03791  eV     1   --> B              
     e(113 -113) =     13.06001  eV     1   --> A              
     e(114 -114) =     13.09880  eV     1   --> A              
     e(115 -115) =     13.11734  eV     1   --> B              
     e(116 -116) =     13.14133  eV     1   --> A              
     e(117 -117) =     13.31941  eV     1   --> B              
     e(118 -118) =     13.34915  eV     1   --> B              
     e(119 -119) =     13.41110  eV     1   --> B              
     e(120 -120) =     13.44626  eV     1   --> A              
     e(121 -121) =     13.58040  eV     1   --> A              
     e(122 -122) =     13.60187  eV     1   --> A              
     e(123 -123) =     13.79554  eV     1   --> A              
     e(124 -124) =     14.29278  eV     1   --> B              
     e(125 -125) =     14.35961  eV     1   --> A              
     e(126 -126) =     14.41817  eV     1   --> B              
     e(127 -127) =     14.45971  eV     1   --> B              
     e(128 -128) =     14.58845  eV     1   --> A              
     e(129 -129) =     14.61380  eV     1   --> A              
     e(130 -130) =     14.71681  eV     1   --> B              

 **************************************************************************

 **************************************************************************

                    xk=(   0.00000,   0.09952,   0.00000  )

     Band symmetry, C_2  (2)    point group:

     e(  1 -  2) =    -63.65606  eV     2   --> A              
     e(  1 -  2) =    -63.65606  eV     2   --> B              
     e(  3 -  4) =    -63.62673  eV     2   --> A              
     e(  3 -  4) =    -63.62673  eV     2   --> B              
     e(  5 -  6) =    -63.62289  eV     2   --> A              
     e(  5 -  6) =    -63.62289  eV     2   --> B              
     e(  7 -  8) =    -63.60726  eV     2   --> A              
     e(  7 -  8) =    -63.60726  eV     2   --> B              
     e(  9 - 10) =    -28.15871  eV     2   --> A              
     e(  9 - 10) =    -28.15871  eV     2   --> B              
     e( 11 - 12) =    -28.15768  eV     2   --> A              
     e( 11 - 12) =    -28.15768  eV     2   --> B              
     e( 13 - 14) =    -28.11073  eV     2   --> A              
     e( 13 - 14) =    -28.11073  eV     2   --> B              
     e( 15 - 16) =    -27.94660  eV     2   --> A              
     e( 15 - 16) =    -27.94660  eV     2   --> B              
     e( 17 - 18) =    -27.90007  eV     2   --> A              
     e( 17 - 18) =    -27.90007  eV     2   --> B              
     e( 19 - 20) =    -27.83772  eV     2   --> A              
     e( 19 - 20) =    -27.83772  eV     2   --> B              
     e( 21 - 22) =    -27.83517  eV     2   --> A              
     e( 21 - 22) =    -27.83517  eV     2   --> B              
     e( 23 - 24) =    -27.74806  eV     2   --> A              
     e( 23 - 24) =    -27.74806  eV     2   --> B              
     e( 25 - 26) =    -27.73841  eV     2   --> A              
     e( 25 - 26) =    -27.73841  eV     2   --> B              
     e( 27 - 28) =    -27.66395  eV     2   --> A              
     e( 27 - 28) =    -27.66395  eV     2   --> B              
     e( 29 - 30) =    -27.64384  eV     2   --> A              
     e( 29 - 30) =    -27.64384  eV     2   --> B              
     e( 31 - 32) =    -27.54689  eV     2   --> A              
     e( 31 - 32) =    -27.54689  eV     2   --> B              
     e( 33 - 33) =     -4.17029  eV     1   --> A              
     e( 34 - 34) =     -3.89598  eV     1   --> B              
     e( 35 - 35) =     -2.84905  eV     1   --> A              
     e( 36 - 36) =     -2.58788  eV     1   --> B              
     e( 37 - 37) =     -2.31877  eV     1   --> A              
     e( 38 - 38) =     -2.29417  eV     1   --> A              
     e( 39 - 39) =     -2.13560  eV     1   --> B              
     e( 40 - 40) =     -2.11339  eV     1   --> B              
     e( 41 - 41) =     -1.98185  eV     1   --> A              
     e( 42 - 42) =     -1.95490  eV     1   --> B              
     e( 43 - 43) =     -1.91707  eV     1   --> B              
     e( 44 - 44) =     -1.82585  eV     1   --> A              
     e( 45 - 45) =     -1.76560  eV     1   --> B              
     e( 46 - 46) =     -1.75445  eV     1   --> A              
     e( 47 - 47) =     -1.69977  eV     1   --> A              
     e( 48 - 48) =     -1.63908  eV     1   --> B              
     e( 49 - 49) =      3.96317  eV     1   --> A              
     e( 50 - 50) =      3.97080  eV     1   --> B              
     e( 51 - 51) =      3.98221  eV     1   --> A              
     e( 52 - 52) =      4.76777  eV     1   --> A              
     e( 53 - 53) =      4.80165  eV     1   --> B              
     e( 54 - 54) =      4.85650  eV     1   --> A              
     e( 55 - 55) =      4.87249  eV     1   --> B              
     e( 56 - 56) =      5.12350  eV     1   --> A              
     e( 57 - 57) =      5.14562  eV     1   --> B              
     e( 58 - 58) =      5.36625  eV     1   --> A              
     e( 59 - 59) =      5.47127  eV     1   --> A              
     e( 60 - 60) =      5.55091  eV     1   --> B              
     e( 61 - 61) =      5.58936  eV     1   --> B              
     e( 62 - 62) =      5.78798  eV     1   --> A              
     e( 63 - 63) =      5.90975  eV     1   --> B              
     e( 64 - 64) =      5.91624  eV     1   --> B              
     e( 65 - 65) =      5.97112  eV     1   --> A              
     e( 66 - 66) =      6.17182  eV     1   --> B              
     e( 67 - 67) =      6.17226  eV     1   --> A              
     e( 68 - 68) =      6.20498  eV     1   --> B              
     e( 69 - 69) =      6.82123  eV     1   --> A              
     e( 70 - 70) =      6.88022  eV     1   --> B              
     e( 71 - 71) =      6.94090  eV     1   --> B              
     e( 72 - 72) =      6.95735  eV     1   --> A              
     e( 73 - 73) =      6.96286  eV     1   --> A              
     e( 74 - 74) =      6.97692  eV     1   --> A              
     e( 75 - 75) =      7.15732  eV     1   --> B              
     e( 76 - 76) =      7.18624  eV     1   --> A              
     e( 77 - 77) =      7.21136  eV     1   --> B              
     e( 78 - 78) =      7.22646  eV     1   --> A              
     e( 79 - 79) =      7.44572  eV     1   --> B              
     e( 80 - 80) =      7.50339  eV     1   --> A              
     e( 81 - 81) =      7.68159  eV     1   --> B              
     e( 82 - 82) =      7.73324  eV     1   --> B              
     e( 83 - 83) =      7.74887  eV     1   --> B              
     e( 84 - 84) =      7.82997  eV     1   --> A              
     e( 85 - 85) =      8.22965  eV     1   --> B              
     e( 86 - 86) =      8.45479  eV     1   --> B              
     e( 87 - 87) =      8.47302  eV     1   --> A              
     e( 88 - 88) =      8.50917  eV     1   --> A              
     e( 89 - 89) =      8.74361  eV     1   --> A              
     e( 90 - 90) =      8.81474  eV     1   --> B              
     e( 91 - 91) =      8.92835  eV     1   --> A              
     e( 92 - 92) =      9.17563  eV     1   --> A              
     e( 93 - 93) =      9.21458  eV     1   --> A              
     e( 94 - 94) =      9.35239  eV     1   --> B              
     e( 95 - 95) =      9.43357  eV     1   --> A              
     e( 96 - 96) =      9.44926  eV     1   --> B              
     e( 97 - 97) =      9.51248  eV     1   --> B              
     e( 98 - 98) =      9.54617  eV     1   --> B              
     e( 99 - 99) =      9.93318  eV     1   --> A              
     e(100 -100) =     10.22459  eV     1   --> A              
     e(101 -101) =     10.23838  eV     1   --> B              
     e(102 -102) =     10.37409  eV     1   --> B              
     e(103 -103) =     10.48746  eV     1   --> B              
     e(104 -104) =     10.51556  eV     1   --> A              
     e(105 -105) =     10.61952  eV     1   --> A              
     e(106 -106) =     11.01870  eV     1   --> B              
     e(107 -107) =     11.63089  eV     1   --> B              
     e(108 -108) =     11.64002  eV     1   --> A              
     e(109 -109) =     12.75033  eV     1   --> A              
     e(110 -110) =     12.88743  eV     1   --> B              
     e(111 -111) =     12.97766  eV     1   --> B              
     e(112 -112) =     12.98043  eV     1   --> A              
     e(113 -113) =     13.01521  eV     1   --> A              
     e(114 -114) =     13.12633  eV     1   --> A              
     e(115 -115) =     13.13455  eV     1   --> B              
     e(116 -116) =     13.16804  eV     1   --> A              
     e(117 -117) =     13.31199  eV     1   --> B              
     e(118 -118) =     13.36921  eV     1   --> B              
     e(119 -119) =     13.41254  eV     1   --> B              
     e(120 -120) =     13.44377  eV     1   --> A              
     e(121 -121) =     13.57394  eV     1   --> A              
     e(122 -122) =     13.61708  eV     1   --> A              
     e(123 -123) =     13.79656  eV     1   --> A              
     e(124 -124) =     14.26094  eV     1   --> B              
     e(125 -125) =     14.34967  eV     1   --> A              
     e(126 -126) =     14.39919  eV     1   --> B              
     e(127 -127) =     14.48142  eV     1   --> B              
     e(128 -128) =     14.58383  eV     1   --> A              
     e(129 -129) =     14.59916  eV     1   --> A              
     e(130 -130) =     14.71699  eV     1   --> B              

 **************************************************************************

 **************************************************************************

                    xk=(   0.00000,   0.14928,   0.00000  )

     Band symmetry, C_2  (2)    point group:

     e(  1 -  2) =    -63.65591  eV     2   --> A              
     e(  1 -  2) =    -63.65591  eV     2   --> B              
     e(  3 -  4) =    -63.62774  eV     2   --> A              
     e(  3 -  4) =    -63.62774  eV     2   --> B              
     e(  5 -  6) =    -63.62198  eV     2   --> A              
     e(  5 -  6) =    -63.62198  eV     2   --> B              
     e(  7 -  8) =    -63.60730  eV     2   --> A              
     e(  7 -  8) =    -63.60730  eV     2   --> B              
     e(  9 - 10) =    -28.15763  eV     2   --> A              
     e(  9 - 10) =    -28.15763  eV     2   --> B              
     e( 11 - 12) =    -28.15620  eV     2   --> A              
     e( 11 - 12) =    -28.15620  eV     2   --> B              
     e( 13 - 14) =    -28.11042  eV     2   --> A              
     e( 13 - 14) =    -28.11042  eV     2   --> B              
     e( 15 - 16) =    -27.94871  eV     2   --> A              
     e( 15 - 16) =    -27.94871  eV     2   --> B              
     e( 17 - 18) =    -27.89951  eV     2   --> A              
     e( 17 - 18) =    -27.89951  eV     2   --> B              
     e( 19 - 20) =    -27.83874  eV     2   --> A              
     e( 19 - 20) =    -27.83874  eV     2   --> B              
     e( 21 - 22) =    -27.83489  eV     2   --> A              
     e( 21 - 22) =    -27.83489  eV     2   --> B              
     e( 23 - 24) =    -27.75044  eV     2   --> A              
     e( 23 - 24) =    -27.75044  eV     2   --> B              
     e( 25 - 26) =    -27.73719  eV     2   --> A              
     e( 25 - 26) =    -27.73719  eV     2   --> B              
     e( 27 - 28) =    -27.66867  eV     2   --> A              
     e( 27 - 28) =    -27.66867  eV     2   --> B              
     e( 29 - 30) =    -27.63862  eV     2   --> A              
     e( 29 - 30) =    -27.63862  eV     2   --> B              
     e( 31 - 32) =    -27.54692  eV     2   --> A              
     e( 31 - 32) =    -27.54692  eV     2   --> B              
     e( 33 - 33) =     -4.16042  eV     1   --> A              
     e( 34 - 34) =     -3.88604  eV     1   --> B              
     e( 35 - 35) =     -2.84541  eV     1   --> A              
     e( 36 - 36) =     -2.58303  eV     1   --> B              
     e( 37 - 37) =     -2.34414  eV     1   --> A              
     e( 38 - 38) =     -2.30106  eV     1   --> A              
     e( 39 - 39) =     -2.15384  eV     1   --> B              
     e( 40 - 40) =     -2.11549  eV     1   --> B              
     e( 41 - 41) =     -1.97652  eV     1   --> A              
     e( 42 - 42) =     -1.95408  eV     1   --> B              
     e( 43 - 43) =     -1.91420  eV     1   --> B              
     e( 44 - 44) =     -1.84835  eV     1   --> A              
     e( 45 - 45) =     -1.79610  eV     1   --> B              
     e( 46 - 46) =     -1.75473  eV     1   --> A              
     e( 47 - 47) =     -1.66697  eV     1   --> A              
     e( 48 - 48) =     -1.61260  eV     1   --> B              
     e( 49 - 49) =      3.97326  eV     1   --> A              
     e( 50 - 50) =      3.98346  eV     1   --> B              
     e( 51 - 51) =      3.99418  eV     1   --> A              
     e( 52 - 52) =      4.75742  eV     1   --> A              
     e( 53 - 53) =      4.80358  eV     1   --> B              
     e( 54 - 54) =      4.88506  eV     1   --> A              
     e( 55 - 55) =      4.90463  eV     1   --> B              
     e( 56 - 56) =      5.07561  eV     1   --> A              
     e( 57 - 57) =      5.15670  eV     1   --> B              
     e( 58 - 58) =      5.43937  eV     1   --> A              
     e( 59 - 59) =      5.46618  eV     1   --> A              
     e( 60 - 60) =      5.52732  eV     1   --> B              
     e( 61 - 61) =      5.58812  eV     1   --> B              
     e( 62 - 62) =      5.78718  eV     1   --> A              
     e( 63 - 63) =      5.89758  eV     1   --> B              
     e( 64 - 64) =      5.91911  eV     1   --> B              
     e( 65 - 65) =      5.92664  eV     1   --> A              
     e( 66 - 66) =      6.19375  eV     1   --> B              
     e( 67 - 67) =      6.22243  eV     1   --> A              
     e( 68 - 68) =      6.24094  eV     1   --> B              
     e( 69 - 69) =      6.82060  eV     1   --> A              
     e( 70 - 70) =      6.84900  eV     1   --> B              
     e( 71 - 71) =      6.89779  eV     1   --> A              
     e( 72 - 72) =      6.92549  eV     1   --> B              
     e( 73 - 73) =      6.92641  eV     1   --> A              
     e( 74 - 74) =      6.93039  eV     1   --> A              
     e( 75 - 75) =      7.13526  eV     1   --> B              
     e( 76 - 76) =      7.20245  eV     1   --> B              
     e( 77 - 77) =      7.23636  eV     1   --> A              
     e( 78 - 78) =      7.28066  eV     1   --> A              
     e( 79 - 79) =      7.46163  eV     1   --> B              
     e( 80 - 80) =      7.50693  eV     1   --> A              
     e( 81 - 81) =      7.69943  eV     1   --> B              
     e( 82 - 82) =      7.74706  eV     1   --> B              
     e( 83 - 83) =      7.75496  eV     1   --> B              
     e( 84 - 84) =      7.85699  eV     1   --> A              
     e( 85 - 85) =      8.16324  eV     1   --> B              
     e( 86 - 86) =      8.45297  eV     1   --> A              
     e( 87 - 87) =      8.46526  eV     1   --> A              
     e( 88 - 88) =      8.49657  eV     1   --> B              
     e( 89 - 89) =      8.73550  eV     1   --> B              
     e( 90 - 90) =      8.79853  eV     1   --> A              
     e( 91 - 91) =      8.82204  eV     1   --> A              
     e( 92 - 92) =      9.17483  eV     1   --> A              
     e( 93 - 93) =      9.23178  eV     1   --> A              
     e( 94 - 94) =      9.38914  eV     1   --> B              
     e( 95 - 95) =      9.45596  eV     1   --> B              
     e( 96 - 96) =      9.50833  eV     1   --> A              
     e( 97 - 97) =      9.54463  eV     1   --> B              
     e( 98 - 98) =      9.54547  eV     1   --> B              
     e( 99 - 99) =      9.91777  eV     1   --> A              
     e(100 -100) =     10.16523  eV     1   --> A              
     e(101 -101) =     10.22741  eV     1   --> B              
     e(102 -102) =     10.25080  eV     1   --> B              
     e(103 -103) =     10.49689  eV     1   --> B              
     e(104 -104) =     10.55454  eV     1   --> A              
     e(105 -105) =     10.56270  eV     1   --> A              
     e(106 -106) =     11.09672  eV     1   --> B              
     e(107 -107) =     11.63284  eV     1   --> B              
     e(108 -108) =     11.67338  eV     1   --> A              
     e(109 -109) =     12.77613  eV     1   --> A              
     e(110 -110) =     12.90536  eV     1   --> B              
     e(111 -111) =     12.90911  eV     1   --> B              
     e(112 -112) =     12.93773  eV     1   --> A              
     e(113 -113) =     12.96259  eV     1   --> A              
     e(114 -114) =     13.13660  eV     1   --> B              
     e(115 -115) =     13.15132  eV     1   --> A              
     e(116 -116) =     13.18499  eV     1   --> A              
     e(117 -117) =     13.31087  eV     1   --> B              
     e(118 -118) =     13.39177  eV     1   --> B              
     e(119 -119) =     13.41524  eV     1   --> B              
     e(120 -120) =     13.44023  eV     1   --> A              
     e(121 -121) =     13.57195  eV     1   --> A              
     e(122 -122) =     13.63618  eV     1   --> A              
     e(123 -123) =     13.79803  eV     1   --> A              
     e(124 -124) =     14.21437  eV     1   --> B              
     e(125 -125) =     14.32830  eV     1   --> A              
     e(126 -126) =     14.38142  eV     1   --> B              
     e(127 -127) =     14.50274  eV     1   --> B              
     e(128 -128) =     14.57658  eV     1   --> A              
     e(129 -129) =     14.58295  eV     1   --> A              
     e(130 -130) =     14.71589  eV     1   --> B              

 **************************************************************************

 **************************************************************************

                    xk=(   0.00000,   0.19905,   0.00000  )

     Band symmetry, C_2  (2)    point group:

     e(  1 -  2) =    -63.65570  eV     2   --> A              
     e(  1 -  2) =    -63.65570  eV     2   --> B              
     e(  3 -  4) =    -63.62877  eV     2   --> A              
     e(  3 -  4) =    -63.62877  eV     2   --> B              
     e(  5 -  6) =    -63.62111  eV     2   --> A              
     e(  5 -  6) =    -63.62111  eV     2   --> B              
     e(  7 -  8) =    -63.60736  eV     2   --> A              
     e(  7 -  8) =    -63.60736  eV     2   --> B              
     e(  9 - 10) =    -28.15600  eV     2   --> A              
     e(  9 - 10) =    -28.15600  eV     2   --> B              
     e( 11 - 12) =    -28.15429  eV     2   --> A              
     e( 11 - 12) =    -28.15429  eV     2   --> B              
     e( 13 - 14) =    -28.10999  eV     2   --> A              
     e( 13 - 14) =    -28.10999  eV     2   --> B              
     e( 15 - 16) =    -27.95162  eV     2   --> A              
     e( 15 - 16) =    -27.95162  eV     2   --> B              
     e( 17 - 18) =    -27.89875  eV     2   --> A              
     e( 17 - 18) =    -27.89875  eV     2   --> B              
     e( 19 - 20) =    -27.83990  eV     2   --> A              
     e( 19 - 20) =    -27.83990  eV     2   --> B              
     e( 21 - 22) =    -27.83473  eV     2   --> A              
     e( 21 - 22) =    -27.83473  eV     2   --> B              
     e( 23 - 24) =    -27.75323  eV     2   --> A              
     e( 23 - 24) =    -27.75323  eV     2   --> B              
     e( 25 - 26) =    -27.73600  eV     2   --> A              
     e( 25 - 26) =    -27.73600  eV     2   --> B              
     e( 27 - 28) =    -27.67321  eV     2   --> A              
     e( 27 - 28) =    -27.67321  eV     2   --> B              
     e( 29 - 30) =    -27.63338  eV     2   --> A              
     e( 29 - 30) =    -27.63338  eV     2   --> B              
     e( 31 - 32) =    -27.54698  eV     2   --> A              
     e( 31 - 32) =    -27.54698  eV     2   --> B              
     e( 33 - 33) =     -4.14662  eV     1   --> A              
     e( 34 - 34) =     -3.87216  eV     1   --> B              
     e( 35 - 35) =     -2.84033  eV     1   --> A              
     e( 36 - 36) =     -2.57631  eV     1   --> B              
     e( 37 - 37) =     -2.37872  eV     1   --> A              
     e( 38 - 38) =     -2.31104  eV     1   --> A              
     e( 39 - 39) =     -2.17959  eV     1   --> B              
     e( 40 - 40) =     -2.11941  eV     1   --> B              
     e( 41 - 41) =     -1.96909  eV     1   --> A              
     e( 42 - 42) =     -1.95293  eV     1   --> B              
     e( 43 - 43) =     -1.91016  eV     1   --> B              
     e( 44 - 44) =     -1.86502  eV     1   --> A              
     e( 45 - 45) =     -1.82310  eV     1   --> B              
     e( 46 - 46) =     -1.75514  eV     1   --> A              
     e( 47 - 47) =     -1.63630  eV     1   --> A              
     e( 48 - 48) =     -1.58972  eV     1   --> B              
     e( 49 - 49) =      3.98729  eV     1   --> A              
     e( 50 - 50) =      4.00110  eV     1   --> B              
     e( 51 - 51) =      4.01085  eV     1   --> A              
     e( 52 - 52) =      4.75271  eV     1   --> A              
     e( 53 - 53) =      4.81455  eV     1   --> B              
     e( 54 - 54) =      4.91325  eV     1   --> A              
     e( 55 - 55) =      4.93922  eV     1   --> B              
     e( 56 - 56) =      5.03365  eV     1   --> A              
     e( 57 - 57) =      5.17202  eV     1   --> B              
     e( 58 - 58) =      5.45912  eV     1   --> A              
     e( 59 - 59) =      5.49998  eV     1   --> B              
     e( 60 - 60) =      5.51752  eV     1   --> A              
     e( 61 - 61) =      5.58786  eV     1   --> B              
     e( 62 - 62) =      5.78566  eV     1   --> A              
     e( 63 - 63) =      5.88059  eV     1   --> B              
     e( 64 - 64) =      5.88546  eV     1   --> A              
     e( 65 - 65) =      5.92296  eV     1   --> B              
     e( 66 - 66) =      6.22514  eV     1   --> B              
     e( 67 - 67) =      6.26750  eV     1   --> A              
     e( 68 - 68) =      6.28362  eV     1   --> B              
     e( 69 - 69) =      6.81894  eV     1   --> B              
     e( 70 - 70) =      6.82008  eV     1   --> A              
     e( 71 - 71) =      6.83727  eV     1   --> A              
     e( 72 - 72) =      6.88737  eV     1   --> A              
     e( 73 - 73) =      6.88872  eV     1   --> A              
     e( 74 - 74) =      6.90482  eV     1   --> B              
     e( 75 - 75) =      7.05791  eV     1   --> B              
     e( 76 - 76) =      7.25209  eV     1   --> B              
     e( 77 - 77) =      7.28578  eV     1   --> A              
     e( 78 - 78) =      7.32852  eV     1   --> A              
     e( 79 - 79) =      7.45688  eV     1   --> B              
     e( 80 - 80) =      7.51165  eV     1   --> A              
     e( 81 - 81) =      7.73161  eV     1   --> B              
     e( 82 - 82) =      7.74438  eV     1   --> B              
     e( 83 - 83) =      7.77596  eV     1   --> B              
     e( 84 - 84) =      7.88583  eV     1   --> A              
     e( 85 - 85) =      8.09549  eV     1   --> B              
     e( 86 - 86) =      8.40000  eV     1   --> A              
     e( 87 - 87) =      8.45421  eV     1   --> A              
     e( 88 - 88) =      8.53259  eV     1   --> B              
     e( 89 - 89) =      8.64028  eV     1   --> B              
     e( 90 - 90) =      8.71159  eV     1   --> A              
     e( 91 - 91) =      8.84933  eV     1   --> A              
     e( 92 - 92) =      9.17892  eV     1   --> A              
     e( 93 - 93) =      9.25191  eV     1   --> A              
     e( 94 - 94) =      9.41861  eV     1   --> B              
     e( 95 - 95) =      9.47274  eV     1   --> B              
     e( 96 - 96) =      9.54697  eV     1   --> B              
     e( 97 - 97) =      9.57752  eV     1   --> A              
     e( 98 - 98) =      9.58325  eV     1   --> B              
     e( 99 - 99) =      9.89246  eV     1   --> A              
     e(100 -100) =     10.10118  eV     1   --> A              
     e(101 -101) =     10.11333  eV     1   --> B              
     e(102 -102) =     10.21645  eV     1   --> B              
     e(103 -103) =     10.47686  eV     1   --> A              
     e(104 -104) =     10.50786  eV     1   --> B              
     e(105 -105) =     10.61191  eV     1   --> A              
     e(106 -106) =     11.16587  eV     1   --> B              
     e(107 -107) =     11.64135  eV     1   --> B              
     e(108 -108) =     11.71130  eV     1   --> A              
     e(109 -109) =     12.81064  eV     1   --> A              
     e(110 -110) =     12.82246  eV     1   --> B              
     e(111 -111) =     12.89406  eV     1   --> A              
     e(112 -112) =     12.90397  eV     1   --> A              
     e(113 -113) =     12.93836  eV     1   --> B              
     e(114 -114) =     13.12543  eV     1   --> B              
     e(115 -115) =     13.17248  eV     1   --> A              
     e(116 -116) =     13.18959  eV     1   --> A              
     e(117 -117) =     13.31567  eV     1   --> B              
     e(118 -118) =     13.41631  eV     1   --> B              
     e(119 -119) =     13.41962  eV     1   --> B              
     e(120 -120) =     13.43630  eV     1   --> A              
     e(121 -121) =     13.57669  eV     1   --> A              
     e(122 -122) =     13.65951  eV     1   --> A              
     e(123 -123) =     13.79963  eV     1   --> A              
     e(124 -124) =     14.15933  eV     1   --> B              
     e(125 -125) =     14.29321  eV     1   --> A              
     e(126 -126) =     14.36449  eV     1   --> B              
     e(127 -127) =     14.52280  eV     1   --> B              
     e(128 -128) =     14.54849  eV     1   --> A              
     e(129 -129) =     14.59042  eV     1   --> A              
     e(130 -130) =     14.71100  eV     1   --> B              

 **************************************************************************

 **************************************************************************

                    xk=(   0.00000,   0.24881,   0.00000  )

     Band symmetry, C_2  (2)    point group:

     e(  1 -  2) =    -63.65544  eV     2   --> A              
     e(  1 -  2) =    -63.65544  eV     2   --> B              
     e(  3 -  4) =    -63.62981  eV     2   --> A              
     e(  3 -  4) =    -63.62981  eV     2   --> B              
     e(  5 -  6) =    -63.62025  eV     2   --> A              
     e(  5 -  6) =    -63.62025  eV     2   --> B              
     e(  7 -  8) =    -63.60744  eV     2   --> A              
     e(  7 -  8) =    -63.60744  eV     2   --> B              
     e(  9 - 10) =    -28.15381  eV     2   --> A              
     e(  9 - 10) =    -28.15381  eV     2   --> B              
     e( 11 - 12) =    -28.15199  eV     2   --> A              
     e( 11 - 12) =    -28.15199  eV     2   --> B              
     e( 13 - 14) =    -28.10947  eV     2   --> A              
     e( 13 - 14) =    -28.10947  eV     2   --> B              
     e( 15 - 16) =    -27.95526  eV     2   --> A              
     e( 15 - 16) =    -27.95526  eV     2   --> B              
     e( 17 - 18) =    -27.89783  eV     2   --> A              
     e( 17 - 18) =    -27.89783  eV     2   --> B              
     e( 19 - 20) =    -27.84121  eV     2   --> A              
     e( 19 - 20) =    -27.84121  eV     2   --> B              
     e( 21 - 22) =    -27.83467  eV     2   --> A              
     e( 21 - 22) =    -27.83467  eV     2   --> B              
     e( 23 - 24) =    -27.75637  eV     2   --> A              
     e( 23 - 24) =    -27.75637  eV     2   --> B              
     e( 25 - 26) =    -27.73488  eV     2   --> A              
     e( 25 - 26) =    -27.73488  eV     2   --> B              
     e( 27 - 28) =    -27.67757  eV     2   --> A              
     e( 27 - 28) =    -27.67757  eV     2   --> B              
     e( 29 - 30) =    -27.62814  eV     2   --> A              
     e( 29 - 30) =    -27.62814  eV     2   --> B              
     e( 31 - 32) =    -27.54707  eV     2   --> A              
     e( 31 - 32) =    -27.54707  eV     2   --> B              
     e( 33 - 33) =     -4.12894  eV     1   --> A              
     e( 34 - 34) =     -3.85439  eV     1   --> B              
     e( 35 - 35) =     -2.83386  eV     1   --> A              
     e( 36 - 36) =     -2.56779  eV     1   --> B              
     e( 37 - 37) =     -2.42213  eV     1   --> A              
     e( 38 - 38) =     -2.32342  eV     1   --> A              
     e( 39 - 39) =     -2.21355  eV     1   --> B              
     e( 40 - 40) =     -2.12481  eV     1   --> B              
     e( 41 - 41) =     -1.95963  eV     1   --> A              
     e( 42 - 42) =     -1.95150  eV     1   --> B              
     e( 43 - 43) =     -1.90496  eV     1   --> B              
     e( 44 - 44) =     -1.87588  eV     1   --> A              
     e( 45 - 45) =     -1.84552  eV     1   --> B              
     e( 46 - 46) =     -1.75569  eV     1   --> A              
     e( 47 - 47) =     -1.60858  eV     1   --> A              
     e( 48 - 48) =     -1.57083  eV     1   --> B              
     e( 49 - 49) =      4.00514  eV     1   --> A              
     e( 50 - 50) =      4.02364  eV     1   --> B              
     e( 51 - 51) =      4.03218  eV     1   --> A              
     e( 52 - 52) =      4.75294  eV     1   --> A              
     e( 53 - 53) =      4.83480  eV     1   --> B              
     e( 54 - 54) =      4.93953  eV     1   --> A              
     e( 55 - 55) =      4.97395  eV     1   --> B              
     e( 56 - 56) =      4.99886  eV     1   --> A              
     e( 57 - 57) =      5.19137  eV     1   --> B              
     e( 58 - 58) =      5.45018  eV     1   --> A              
     e( 59 - 59) =      5.47010  eV     1   --> B              
     e( 60 - 60) =      5.59229  eV     1   --> B              
     e( 61 - 61) =      5.60036  eV     1   --> A              
     e( 62 - 62) =      5.78303  eV     1   --> A              
     e( 63 - 63) =      5.84782  eV     1   --> A              
     e( 64 - 64) =      5.85899  eV     1   --> B              
     e( 65 - 65) =      5.92760  eV     1   --> B              
     e( 66 - 66) =      6.26392  eV     1   --> B              
     e( 67 - 67) =      6.30209  eV     1   --> A              
     e( 68 - 68) =      6.32993  eV     1   --> B              
     e( 69 - 69) =      6.78697  eV     1   --> A              
     e( 70 - 70) =      6.79280  eV     1   --> B              
     e( 71 - 71) =      6.81999  eV     1   --> A              
     e( 72 - 72) =      6.84779  eV     1   --> A              
     e( 73 - 73) =      6.84960  eV     1   --> A              
     e( 74 - 74) =      6.87972  eV     1   --> B              
     e( 75 - 75) =      6.98144  eV     1   --> B              
     e( 76 - 76) =      7.30345  eV     1   --> B              
     e( 77 - 77) =      7.33385  eV     1   --> A              
     e( 78 - 78) =      7.36868  eV     1   --> A              
     e( 79 - 79) =      7.43916  eV     1   --> B              
     e( 80 - 80) =      7.51727  eV     1   --> A              
     e( 81 - 81) =      7.74071  eV     1   --> B              
     e( 82 - 82) =      7.76899  eV     1   --> B              
     e( 83 - 83) =      7.79544  eV     1   --> B              
     e( 84 - 84) =      7.90799  eV     1   --> A              
     e( 85 - 85) =      8.02854  eV     1   --> B              
     e( 86 - 86) =      8.35134  eV     1   --> A              
     e( 87 - 87) =      8.43975  eV     1   --> A              
     e( 88 - 88) =      8.53361  eV     1   --> B              
     e( 89 - 89) =      8.56412  eV     1   --> B              
     e( 90 - 90) =      8.60592  eV     1   --> A              
     e( 91 - 91) =      8.89480  eV     1   --> A              
     e( 92 - 92) =      9.18878  eV     1   --> A              
     e( 93 - 93) =      9.27509  eV     1   --> A              
     e( 94 - 94) =      9.42703  eV     1   --> B              
     e( 95 - 95) =      9.49910  eV     1   --> B              
     e( 96 - 96) =      9.56137  eV     1   --> B              
     e( 97 - 97) =      9.62509  eV     1   --> B              
     e( 98 - 98) =      9.63616  eV     1   --> A              
     e( 99 - 99) =      9.85299  eV     1   --> A              
     e(100 -100) =      9.96697  eV     1   --> B              
     e(101 -101) =     10.03624  eV     1   --> A              
     e(102 -102) =     10.20782  eV     1   --> B              
     e(103 -103) =     10.39584  eV     1   --> A              
     e(104 -104) =     10.51958  eV     1   --> B              
     e(105 -105) =     10.66209  eV     1   --> A              
     e(106 -106) =     11.21607  eV     1   --> B              
     e(107 -107) =     11.66207  eV     1   --> B              
     e(108 -108) =     11.74959  eV     1   --> A              
     e(109 -109) =     12.73053  eV     1   --> B              
     e(110 -110) =     12.83971  eV     1   --> A              
     e(111 -111) =     12.85015  eV     1   --> A              
     e(112 -112) =     12.85241  eV     1   --> A              
     e(113 -113) =     12.97419  eV     1   --> B              
     e(114 -114) =     13.10408  eV     1   --> B              
     e(115 -115) =     13.18036  eV     1   --> A              
     e(116 -116) =     13.19067  eV     1   --> A              
     e(117 -117) =     13.32516  eV     1   --> B              
     e(118 -118) =     13.42619  eV     1   --> B              
     e(119 -119) =     13.43234  eV     1   --> A              
     e(120 -120) =     13.44234  eV     1   --> B              
     e(121 -121) =     13.58996  eV     1   --> A              
     e(122 -122) =     13.68674  eV     1   --> A              
     e(123 -123) =     13.80095  eV     1   --> A              
     e(124 -124) =     14.10128  eV     1   --> B              
     e(125 -125) =     14.24672  eV     1   --> A              
     e(126 -126) =     14.34792  eV     1   --> B              
     e(127 -127) =     14.51775  eV     1   --> A              
     e(128 -128) =     14.54073  eV     1   --> B              
     e(129 -129) =     14.60642  eV     1   --> A              
     e(130 -130) =     14.69787  eV     1   --> B              

 **************************************************************************

 **************************************************************************

                    xk=(   0.00000,   0.29857,   0.00000  )

     Band symmetry, C_2  (2)    point group:

     e(  1 -  2) =    -63.65512  eV     2   --> A              
     e(  1 -  2) =    -63.65512  eV     2   --> B              
     e(  3 -  4) =    -63.63087  eV     2   --> A              
     e(  3 -  4) =    -63.63087  eV     2   --> B              
     e(  5 -  6) =    -63.61943  eV     2   --> A              
     e(  5 -  6) =    -63.61943  eV     2   --> B              
     e(  7 -  8) =    -63.60753  eV     2   --> A              
     e(  7 -  8) =    -63.60753  eV     2   --> B              
     e(  9 - 10) =    -28.15106  eV     2   --> A              
     e(  9 - 10) =    -28.15106  eV     2   --> B              
     e( 11 - 12) =    -28.14934  eV     2   --> A              
     e( 11 - 12) =    -28.14934  eV     2   --> B              
     e( 13 - 14) =    -28.10886  eV     2   --> A              
     e( 13 - 14) =    -28.10886  eV     2   --> B              
     e( 15 - 16) =    -27.95960  eV     2   --> A              
     e( 15 - 16) =    -27.95960  eV     2   --> B              
     e( 17 - 18) =    -27.89675  eV     2   --> A              
     e( 17 - 18) =    -27.89675  eV     2   --> B              
     e( 19 - 20) =    -27.84265  eV     2   --> A              
     e( 19 - 20) =    -27.84265  eV     2   --> B              
     e( 21 - 22) =    -27.83469  eV     2   --> A              
     e( 21 - 22) =    -27.83469  eV     2   --> B              
     e( 23 - 24) =    -27.75983  eV     2   --> A              
     e( 23 - 24) =    -27.75983  eV     2   --> B              
     e( 25 - 26) =    -27.73382  eV     2   --> A              
     e( 25 - 26) =    -27.73382  eV     2   --> B              
     e( 27 - 28) =    -27.68173  eV     2   --> A              
     e( 27 - 28) =    -27.68173  eV     2   --> B              
     e( 29 - 30) =    -27.62293  eV     2   --> A              
     e( 29 - 30) =    -27.62293  eV     2   --> B              
     e( 31 - 32) =    -27.54722  eV     2   --> A              
     e( 31 - 32) =    -27.54722  eV     2   --> B              
     e( 33 - 33) =     -4.10742  eV     1   --> A              
     e( 34 - 34) =     -3.83275  eV     1   --> B              
     e( 35 - 35) =     -2.82603  eV     1   --> A              
     e( 36 - 36) =     -2.55754  eV     1   --> B              
     e( 37 - 37) =     -2.47331  eV     1   --> A              
     e( 38 - 38) =     -2.33767  eV     1   --> A              
     e( 39 - 39) =     -2.25564  eV     1   --> B              
     e( 40 - 40) =     -2.13146  eV     1   --> B              
     e( 41 - 41) =     -1.94978  eV     1   --> B              
     e( 42 - 42) =     -1.94817  eV     1   --> A              
     e( 43 - 43) =     -1.89859  eV     1   --> B              
     e( 44 - 44) =     -1.88160  eV     1   --> A              
     e( 45 - 45) =     -1.86306  eV     1   --> B              
     e( 46 - 46) =     -1.75640  eV     1   --> A              
     e( 47 - 47) =     -1.58445  eV     1   --> A              
     e( 48 - 48) =     -1.55614  eV     1   --> B              
     e( 49 - 49) =      4.02666  eV     1   --> A              
     e( 50 - 50) =      4.05098  eV     1   --> B              
     e( 51 - 51) =      4.05806  eV     1   --> A              
     e( 52 - 52) =      4.75620  eV     1   --> A              
     e( 53 - 53) =      4.86437  eV     1   --> B              
     e( 54 - 54) =      4.96252  eV     1   --> A              
     e( 55 - 55) =      4.97351  eV     1   --> A              
     e( 56 - 56) =      5.00628  eV     1   --> B              
     e( 57 - 57) =      5.21442  eV     1   --> B              
     e( 58 - 58) =      5.43863  eV     1   --> B              
     e( 59 - 59) =      5.43945  eV     1   --> A              
     e( 60 - 60) =      5.60489  eV     1   --> B              
     e( 61 - 61) =      5.68547  eV     1   --> A              
     e( 62 - 62) =      5.77886  eV     1   --> A              
     e( 63 - 63) =      5.81560  eV     1   --> A              
     e( 64 - 64) =      5.83321  eV     1   --> B              
     e( 65 - 65) =      5.93281  eV     1   --> B              
     e( 66 - 66) =      6.30829  eV     1   --> B              
     e( 67 - 67) =      6.31861  eV     1   --> A              
     e( 68 - 68) =      6.37611  eV     1   --> B              
     e( 69 - 69) =      6.75440  eV     1   --> A              
     e( 70 - 70) =      6.77194  eV     1   --> B              
     e( 71 - 71) =      6.80664  eV     1   --> A              
     e( 72 - 72) =      6.81883  eV     1   --> A              
     e( 73 - 73) =      6.82067  eV     1   --> A              
     e( 74 - 74) =      6.85114  eV     1   --> B              
     e( 75 - 75) =      6.90867  eV     1   --> B              
     e( 76 - 76) =      7.35502  eV     1   --> B              
     e( 77 - 77) =      7.38027  eV     1   --> A              
     e( 78 - 78) =      7.40000  eV     1   --> A              
     e( 79 - 79) =      7.41441  eV     1   --> B              
     e( 80 - 80) =      7.52349  eV     1   --> A              
     e( 81 - 81) =      7.73589  eV     1   --> B              
     e( 82 - 82) =      7.80185  eV     1   --> B              
     e( 83 - 83) =      7.81293  eV     1   --> B              
     e( 84 - 84) =      7.91170  eV     1   --> A              
     e( 85 - 85) =      7.96690  eV     1   --> B              
     e( 86 - 86) =      8.30795  eV     1   --> A              
     e( 87 - 87) =      8.41822  eV     1   --> B              
     e( 88 - 88) =      8.42177  eV     1   --> A              
     e( 89 - 89) =      8.51579  eV     1   --> A              
     e( 90 - 90) =      8.59308  eV     1   --> B              
     e( 91 - 91) =      8.93432  eV     1   --> A              
     e( 92 - 92) =      9.20486  eV     1   --> A              
     e( 93 - 93) =      9.30143  eV     1   --> A              
     e( 94 - 94) =      9.40999  eV     1   --> B              
     e( 95 - 95) =      9.53393  eV     1   --> B              
     e( 96 - 96) =      9.58885  eV     1   --> B              
     e( 97 - 97) =      9.67042  eV     1   --> B              
     e( 98 - 98) =      9.67940  eV     1   --> A              
     e( 99 - 99) =      9.79410  eV     1   --> A              
     e(100 -100) =      9.81434  eV     1   --> B              
     e(101 -101) =      9.97517  eV     1   --> A              
     e(102 -102) =     10.20290  eV     1   --> B              
     e(103 -103) =     10.32056  eV     1   --> A              
     e(104 -104) =     10.53179  eV     1   --> B              
     e(105 -105) =     10.71320  eV     1   --> A              
     e(106 -106) =     11.24157  eV     1   --> B              
     e(107 -107) =     11.69910  eV     1   --> B              
     e(108 -108) =     11.78553  eV     1   --> A              
     e(109 -109) =     12.63116  eV     1   --> B              
     e(110 -110) =     12.77025  eV     1   --> A              
     e(111 -111) =     12.80654  eV     1   --> A              
     e(112 -112) =     12.89979  eV     1   --> A              
     e(113 -113) =     13.01544  eV     1   --> B              
     e(114 -114) =     13.07549  eV     1   --> B              
     e(115 -115) =     13.15789  eV     1   --> A              
     e(116 -116) =     13.20723  eV     1   --> A              
     e(117 -117) =     13.33832  eV     1   --> B              
     e(118 -118) =     13.42815  eV     1   --> A              
     e(119 -119) =     13.43545  eV     1   --> B              
     e(120 -120) =     13.46937  eV     1   --> B              
     e(121 -121) =     13.61195  eV     1   --> A              
     e(122 -122) =     13.71693  eV     1   --> A              
     e(123 -123) =     13.80161  eV     1   --> A              
     e(124 -124) =     14.04457  eV     1   --> B              
     e(125 -125) =     14.19406  eV     1   --> A              
     e(126 -126) =     14.33121  eV     1   --> B              
     e(127 -127) =     14.48731  eV     1   --> A              
     e(128 -128) =     14.55577  eV     1   --> B              
     e(129 -129) =     14.62829  eV     1   --> A              
     e(130 -130) =     14.67006  eV     1   --> B              

 **************************************************************************

 **************************************************************************

                    xk=(   0.00000,   0.34833,   0.00000  )

     Band symmetry, C_2  (2)    point group:

     e(  1 -  2) =    -63.65475  eV     2   --> A              
     e(  1 -  2) =    -63.65475  eV     2   --> B              
     e(  3 -  4) =    -63.63193  eV     2   --> A              
     e(  3 -  4) =    -63.63193  eV     2   --> B              
     e(  5 -  6) =    -63.61863  eV     2   --> A              
     e(  5 -  6) =    -63.61863  eV     2   --> B              
     e(  7 -  8) =    -63.60764  eV     2   --> A              
     e(  7 -  8) =    -63.60764  eV     2   --> B              
     e(  9 - 10) =    -28.14776  eV     2   --> A              
     e(  9 - 10) =    -28.14776  eV     2   --> B              
     e( 11 - 12) =    -28.14640  eV     2   --> A              
     e( 11 - 12) =    -28.14640  eV     2   --> B              
     e( 13 - 14) =    -28.10819  eV     2   --> A              
     e( 13 - 14) =    -28.10819  eV     2   --> B              
     e( 15 - 16) =    -27.96458  eV     2   --> A              
     e( 15 - 16) =    -27.96458  eV     2   --> B              
     e( 17 - 18) =    -27.89554  eV     2   --> A              
     e( 17 - 18) =    -27.89554  eV     2   --> B              
     e( 19 - 20) =    -27.84422  eV     2   --> A              
     e( 19 - 20) =    -27.84422  eV     2   --> B              
     e( 21 - 22) =    -27.83475  eV     2   --> A              
     e( 21 - 22) =    -27.83475  eV     2   --> B              
     e( 23 - 24) =    -27.76360  eV     2   --> A              
     e( 23 - 24) =    -27.76360  eV     2   --> B              
     e( 25 - 26) =    -27.73281  eV     2   --> A              
     e( 25 - 26) =    -27.73281  eV     2   --> B              
     e( 27 - 28) =    -27.68568  eV     2   --> A              
     e( 27 - 28) =    -27.68568  eV     2   --> B              
     e( 29 - 30) =    -27.61777  eV     2   --> A              
     e( 29 - 30) =    -27.61777  eV     2   --> B              
     e( 31 - 32) =    -27.54743  eV     2   --> A              
     e( 31 - 32) =    -27.54743  eV     2   --> B              
     e( 33 - 33) =     -4.08211  eV     1   --> A              
     e( 34 - 34) =     -3.80732  eV     1   --> B              
     e( 35 - 35) =     -2.81690  eV     1   --> A              
     e( 36 - 36) =     -2.54569  eV     1   --> B              
     e( 37 - 37) =     -2.53095  eV     1   --> A              
     e( 38 - 38) =     -2.35340  eV     1   --> A              
     e( 39 - 39) =     -2.30505  eV     1   --> B              
     e( 40 - 40) =     -2.13920  eV     1   --> B              
     e( 41 - 41) =     -1.94782  eV     1   --> B              
     e( 42 - 42) =     -1.93479  eV     1   --> A              
     e( 43 - 43) =     -1.89103  eV     1   --> B              
     e( 44 - 44) =     -1.88314  eV     1   --> A              
     e( 45 - 45) =     -1.87615  eV     1   --> B              
     e( 46 - 46) =     -1.75729  eV     1   --> A              
     e( 47 - 47) =     -1.56432  eV     1   --> A              
     e( 48 - 48) =     -1.54571  eV     1   --> B              
     e( 49 - 49) =      4.05166  eV     1   --> A              
     e( 50 - 50) =      4.08299  eV     1   --> B              
     e( 51 - 51) =      4.08837  eV     1   --> A              
     e( 52 - 52) =      4.75893  eV     1   --> A              
     e( 53 - 53) =      4.90317  eV     1   --> B              
     e( 54 - 54) =      4.96133  eV     1   --> A              
     e( 55 - 55) =      4.98119  eV     1   --> A              
     e( 56 - 56) =      5.03400  eV     1   --> B              
     e( 57 - 57) =      5.24070  eV     1   --> B              
     e( 58 - 58) =      5.40620  eV     1   --> B              
     e( 59 - 59) =      5.42709  eV     1   --> A              
     e( 60 - 60) =      5.62826  eV     1   --> B              
     e( 61 - 61) =      5.74352  eV     1   --> A              
     e( 62 - 62) =      5.77270  eV     1   --> A              
     e( 63 - 63) =      5.80399  eV     1   --> B              
     e( 64 - 64) =      5.81710  eV     1   --> A              
     e( 65 - 65) =      5.93831  eV     1   --> B              
     e( 66 - 66) =      6.31049  eV     1   --> A              
     e( 67 - 67) =      6.35675  eV     1   --> B              
     e( 68 - 68) =      6.41677  eV     1   --> B              
     e( 69 - 69) =      6.74587  eV     1   --> A              
     e( 70 - 70) =      6.75699  eV     1   --> B              
     e( 71 - 71) =      6.76765  eV     1   --> A              
     e( 72 - 72) =      6.79686  eV     1   --> A              
     e( 73 - 73) =      6.82006  eV     1   --> B              
     e( 74 - 74) =      6.82251  eV     1   --> A              
     e( 75 - 75) =      6.84413  eV     1   --> B              
     e( 76 - 76) =      7.38589  eV     1   --> B              
     e( 77 - 77) =      7.40581  eV     1   --> B              
     e( 78 - 78) =      7.42171  eV     1   --> A              
     e( 79 - 79) =      7.42495  eV     1   --> A              
     e( 80 - 80) =      7.52987  eV     1   --> A              
     e( 81 - 81) =      7.72977  eV     1   --> B              
     e( 82 - 82) =      7.81277  eV     1   --> B              
     e( 83 - 83) =      7.82832  eV     1   --> B              
     e( 84 - 84) =      7.88330  eV     1   --> A              
     e( 85 - 85) =      7.92558  eV     1   --> B              
     e( 86 - 86) =      8.27057  eV     1   --> A              
     e( 87 - 87) =      8.29601  eV     1   --> B              
     e( 88 - 88) =      8.40025  eV     1   --> A              
     e( 89 - 89) =      8.45364  eV     1   --> A              
     e( 90 - 90) =      8.62165  eV     1   --> B              
     e( 91 - 91) =      8.96827  eV     1   --> A              
     e( 92 - 92) =      9.22675  eV     1   --> A              
     e( 93 - 93) =      9.33096  eV     1   --> A              
     e( 94 - 94) =      9.37391  eV     1   --> B              
     e( 95 - 95) =      9.57570  eV     1   --> B              
     e( 96 - 96) =      9.62113  eV     1   --> B              
     e( 97 - 97) =      9.65705  eV     1   --> B              
     e( 98 - 98) =      9.69941  eV     1   --> A              
     e( 99 - 99) =      9.71192  eV     1   --> A              
     e(100 -100) =      9.71888  eV     1   --> B              
     e(101 -101) =      9.92635  eV     1   --> A              
     e(102 -102) =     10.20199  eV     1   --> B              
     e(103 -103) =     10.25771  eV     1   --> A              
     e(104 -104) =     10.54473  eV     1   --> B              
     e(105 -105) =     10.76547  eV     1   --> A              
     e(106 -106) =     11.24284  eV     1   --> B              
     e(107 -107) =     11.75152  eV     1   --> B              
     e(108 -108) =     11.81776  eV     1   --> A              
     e(109 -109) =     12.52593  eV     1   --> B              
     e(110 -110) =     12.69623  eV     1   --> A              
     e(111 -111) =     12.76352  eV     1   --> A              
     e(112 -112) =     12.95099  eV     1   --> A              
     e(113 -113) =     13.04194  eV     1   --> B              
     e(114 -114) =     13.06088  eV     1   --> B              
     e(115 -115) =     13.12467  eV     1   --> A              
     e(116 -116) =     13.22343  eV     1   --> A              
     e(117 -117) =     13.35457  eV     1   --> B              
     e(118 -118) =     13.42260  eV     1   --> A              
     e(119 -119) =     13.44789  eV     1   --> B              
     e(120 -120) =     13.49684  eV     1   --> B              
     e(121 -121) =     13.64134  eV     1   --> A              
     e(122 -122) =     13.74877  eV     1   --> A              
     e(123 -123) =     13.80131  eV     1   --> A              
     e(124 -124) =     13.99266  eV     1   --> B              
     e(125 -125) =     14.14113  eV     1   --> A              
     e(126 -126) =     14.31397  eV     1   --> B              
     e(127 -127) =     14.45992  eV     1   --> A              
     e(128 -128) =     14.56727  eV     1   --> B              
     e(129 -129) =     14.62274  eV     1   --> B              
     e(130 -130) =     14.65303  eV     1   --> A              

 **************************************************************************

 **************************************************************************

                    xk=(   0.00000,   0.39809,   0.00000  )

     Band symmetry, C_2  (2)    point group:

     e(  1 -  2) =    -63.65432  eV     2   --> A              
     e(  1 -  2) =    -63.65432  eV     2   --> B              
     e(  3 -  4) =    -63.63300  eV     2   --> A              
     e(  3 -  4) =    -63.63300  eV     2   --> B              
     e(  5 -  6) =    -63.61786  eV     2   --> A              
     e(  5 -  6) =    -63.61786  eV     2   --> B              
     e(  7 -  8) =    -63.60776  eV     2   --> A              
     e(  7 -  8) =    -63.60776  eV     2   --> B              
     e(  9 - 10) =    -28.14390  eV     2   --> A              
     e(  9 - 10) =    -28.14390  eV     2   --> B              
     e( 11 - 12) =    -28.14321  eV     2   --> A              
     e( 11 - 12) =    -28.14321  eV     2   --> B              
     e( 13 - 14) =    -28.10747  eV     2   --> A              
     e( 13 - 14) =    -28.10747  eV     2   --> B              
     e( 15 - 16) =    -27.97016  eV     2   --> A              
     e( 15 - 16) =    -27.97016  eV     2   --> B              
     e( 17 - 18) =    -27.89422  eV     2   --> A              
     e( 17 - 18) =    -27.89422  eV     2   --> B              
     e( 19 - 20) =    -27.84590  eV     2   --> A              
     e( 19 - 20) =    -27.84590  eV     2   --> B              
     e( 21 - 22) =    -27.83483  eV     2   --> A              
     e( 21 - 22) =    -27.83483  eV     2   --> B              
     e( 23 - 24) =    -27.76764  eV     2   --> A              
     e( 23 - 24) =    -27.76764  eV     2   --> B              
     e( 25 - 26) =    -27.73184  eV     2   --> A              
     e( 25 - 26) =    -27.73184  eV     2   --> B              
     e( 27 - 28) =    -27.68941  eV     2   --> A              
     e( 27 - 28) =    -27.68941  eV     2   --> B              
     e( 29 - 30) =    -27.61269  eV     2   --> A              
     e( 29 - 30) =    -27.61269  eV     2   --> B              
     e( 31 - 32) =    -27.54773  eV     2   --> A              
     e( 31 - 32) =    -27.54773  eV     2   --> B              
     e( 33 - 33) =     -4.05306  eV     1   --> A              
     e( 34 - 34) =     -3.77816  eV     1   --> B              
     e( 35 - 35) =     -2.80651  eV     1   --> A              
     e( 36 - 36) =     -2.59371  eV     1   --> A              
     e( 37 - 37) =     -2.53235  eV     1   --> B              
     e( 38 - 38) =     -2.37032  eV     1   --> A              
     e( 39 - 39) =     -2.36060  eV     1   --> B              
     e( 40 - 40) =     -2.14791  eV     1   --> B              
     e( 41 - 41) =     -1.94564  eV     1   --> B              
     e( 42 - 42) =     -1.91958  eV     1   --> A              
     e( 43 - 43) =     -1.88560  eV     1   --> B              
     e( 44 - 44) =     -1.88229  eV     1   --> B              
     e( 45 - 45) =     -1.88148  eV     1   --> A              
     e( 46 - 46) =     -1.75840  eV     1   --> A              
     e( 47 - 47) =     -1.54845  eV     1   --> A              
     e( 48 - 48) =     -1.53951  eV     1   --> B              
     e( 49 - 49) =      4.07993  eV     1   --> A              
     e( 50 - 50) =      4.11950  eV     1   --> B              
     e( 51 - 51) =      4.12298  eV     1   --> A              
     e( 52 - 52) =      4.75691  eV     1   --> A              
     e( 53 - 53) =      4.95088  eV     1   --> B              
     e( 54 - 54) =      4.96651  eV     1   --> A              
     e( 55 - 55) =      4.99492  eV     1   --> A              
     e( 56 - 56) =      5.05582  eV     1   --> B              
     e( 57 - 57) =      5.26952  eV     1   --> B              
     e( 58 - 58) =      5.37326  eV     1   --> B              
     e( 59 - 59) =      5.41331  eV     1   --> A              
     e( 60 - 60) =      5.66352  eV     1   --> B              
     e( 61 - 61) =      5.72466  eV     1   --> A              
     e( 62 - 62) =      5.76417  eV     1   --> A              
     e( 63 - 63) =      5.77246  eV     1   --> B              
     e( 64 - 64) =      5.90080  eV     1   --> A              
     e( 65 - 65) =      5.94377  eV     1   --> B              
     e( 66 - 66) =      6.27822  eV     1   --> A              
     e( 67 - 67) =      6.40816  eV     1   --> B              
     e( 68 - 68) =      6.44339  eV     1   --> B              
     e( 69 - 69) =      6.73264  eV     1   --> A              
     e( 70 - 70) =      6.74811  eV     1   --> B              
     e( 71 - 71) =      6.76043  eV     1   --> A              
     e( 72 - 72) =      6.78532  eV     1   --> A              
     e( 73 - 73) =      6.78748  eV     1   --> B              
     e( 74 - 74) =      6.79553  eV     1   --> B              
     e( 75 - 75) =      6.82585  eV     1   --> A              
     e( 76 - 76) =      7.35546  eV     1   --> B              
     e( 77 - 77) =      7.43352  eV     1   --> A              
     e( 78 - 78) =      7.45510  eV     1   --> B              
     e( 79 - 79) =      7.46803  eV     1   --> A              
     e( 80 - 80) =      7.53590  eV     1   --> A              
     e( 81 - 81) =      7.72220  eV     1   --> B              
     e( 82 - 82) =      7.78029  eV     1   --> B              
     e( 83 - 83) =      7.81575  eV     1   --> A              
     e( 84 - 84) =      7.84198  eV     1   --> B              
     e( 85 - 85) =      7.92526  eV     1   --> B              
     e( 86 - 86) =      8.16856  eV     1   --> B              
     e( 87 - 87) =      8.23957  eV     1   --> A              
     e( 88 - 88) =      8.37525  eV     1   --> A              
     e( 89 - 89) =      8.42533  eV     1   --> A              
     e( 90 - 90) =      8.65194  eV     1   --> B              
     e( 91 - 91) =      8.99824  eV     1   --> A              
     e( 92 - 92) =      9.25296  eV     1   --> A              
     e( 93 - 93) =      9.32420  eV     1   --> B              
     e( 94 - 94) =      9.36367  eV     1   --> A              
     e( 95 - 95) =      9.49627  eV     1   --> B              
     e( 96 - 96) =      9.60661  eV     1   --> A              
     e( 97 - 97) =      9.62274  eV     1   --> B              
     e( 98 - 98) =      9.65190  eV     1   --> B              
     e( 99 - 99) =      9.68706  eV     1   --> A              
     e(100 -100) =      9.77016  eV     1   --> B              
     e(101 -101) =      9.89993  eV     1   --> A              
     e(102 -102) =     10.20457  eV     1   --> B              
     e(103 -103) =     10.20919  eV     1   --> A              
     e(104 -104) =     10.55899  eV     1   --> B              
     e(105 -105) =     10.81924  eV     1   --> A              
     e(106 -106) =     11.22486  eV     1   --> B              
     e(107 -107) =     11.81445  eV     1   --> B              
     e(108 -108) =     11.84590  eV     1   --> A              
     e(109 -109) =     12.41630  eV     1   --> B              
     e(110 -110) =     12.61843  eV     1   --> A              
     e(111 -111) =     12.72109  eV     1   --> A              
     e(112 -112) =     13.00423  eV     1   --> A              
     e(113 -113) =     13.00520  eV     1   --> B              
     e(114 -114) =     13.08409  eV     1   --> A              
     e(115 -115) =     13.10926  eV     1   --> B              
     e(116 -116) =     13.24026  eV     1   --> A              
     e(117 -117) =     13.37360  eV     1   --> B              
     e(118 -118) =     13.41360  eV     1   --> A              
[...]
     e( 88 - 89) =      8.62540  eV     2   --> A'             
     e( 88 - 89) =      8.62540  eV     2   --> A''            
     e( 90 - 90) =      8.89754  eV     1   --> A'             
     e( 91 - 91) =      9.05984  eV     1   --> A''            
     e( 92 - 93) =      9.19002  eV     2   --> A'             
     e( 92 - 93) =      9.19002  eV     2   --> A''            
     e( 94 - 94) =      9.30732  eV     1   --> A''            
     e( 95 - 95) =      9.32950  eV     1   --> A'             
     e( 96 - 97) =      9.46543  eV     2   --> A'             
     e( 96 - 97) =      9.46543  eV     2   --> A''            
     e( 98 - 98) =      9.53177  eV     1   --> A'             
     e( 99 - 99) =      9.94075  eV     1   --> A'             
     e(100 -100) =     10.26918  eV     1   --> A'             
     e(101 -101) =     10.29106  eV     1   --> A'             
     e(102 -102) =     10.45665  eV     1   --> A''            
     e(103 -103) =     10.47830  eV     1   --> A''            
     e(104 -104) =     10.51151  eV     1   --> A''            
     e(105 -105) =     10.67748  eV     1   --> A''            
     e(106 -106) =     10.91729  eV     1   --> A'             
     e(107 -107) =     11.60751  eV     1   --> A'             
     e(108 -108) =     11.63044  eV     1   --> A'             
     e(109 -109) =     12.72960  eV     1   --> A'             
     e(110 -110) =     12.86840  eV     1   --> A'             
     e(111 -112) =     13.05712  eV     2   --> A'             
     e(111 -112) =     13.05712  eV     2   --> A''            
     e(113 -114) =     13.08552  eV     2   --> A'             
     e(113 -114) =     13.08552  eV     2   --> A''            
     e(115 -116) =     13.10824  eV     2   --> A'             
     e(115 -116) =     13.10824  eV     2   --> A''            
     e(117 -118) =     13.32921  eV     2   --> A'             
     e(117 -118) =     13.32921  eV     2   --> A''            
     e(119 -119) =     13.41081  eV     1   --> A''            
     e(120 -120) =     13.44683  eV     1   --> A''            
     e(121 -122) =     13.59394  eV     2   --> A'             
     e(121 -122) =     13.59394  eV     2   --> A''            
     e(123 -123) =     13.79986  eV     1   --> A'             
     e(124 -124) =     14.30625  eV     1   --> A''            
     e(125 -125) =     14.36140  eV     1   --> A'             
     e(126 -127) =     14.43490  eV     2   --> A'             
     e(126 -127) =     14.43490  eV     2   --> A''            
     e(128 -128) =     14.59430  eV     1   --> A''            
     e(129 -129) =     14.61700  eV     1   --> A''            
     e(130 -130) =     14.71625  eV     1   --> A'             

 **************************************************************************

 **************************************************************************

                    xk=(  -0.02474,   0.00000,  -0.01031  )

     Band symmetry, C_s (m)     point group:

     e(  1 -  2) =    -63.65617  eV     2   -->   2 A'             
     e(  3 -  6) =    -63.62478  eV     4   -->   2 A'             
     e(  3 -  6) =    -63.62478  eV     4   -->   2 A''            
     e(  7 -  8) =    -63.60723  eV     2   -->   2 A'             
     e(  9 - 12) =    -28.15923  eV     4   -->   2 A'             
     e(  9 - 12) =    -28.15923  eV     4   -->   2 A''            
     e( 13 - 14) =    -28.11098  eV     2   -->   2 A'             
     e( 15 - 16) =    -27.94487  eV     2   -->   2 A''            
     e( 17 - 18) =    -27.90054  eV     2   -->   2 A'             
     e( 19 - 22) =    -27.83615  eV     4   -->   2 A'             
     e( 19 - 22) =    -27.83615  eV     4   -->   2 A''            
     e( 23 - 24) =    -27.74548  eV     2   -->   2 A'             
     e( 25 - 26) =    -27.74005  eV     2   -->   2 A''            
     e( 27 - 30) =    -27.65410  eV     4   -->   2 A'             
     e( 27 - 30) =    -27.65410  eV     4   -->   2 A''            
     e( 31 - 32) =    -27.54687  eV     2   -->   2 A'             
     e( 33 - 33) =     -4.17788  eV     1   --> A'             
     e( 34 - 34) =     -3.90452  eV     1   --> A'             
     e( 35 - 35) =     -2.85127  eV     1   --> A'             
     e( 36 - 36) =     -2.59192  eV     1   --> A'             
     e( 37 - 37) =     -2.29364  eV     1   --> A''            
     e( 38 - 38) =     -2.29341  eV     1   --> A'             
     e( 39 - 39) =     -2.11681  eV     1   --> A''            
     e( 40 - 40) =     -2.11658  eV     1   --> A'             
     e( 41 - 41) =     -1.98845  eV     1   --> A'             
     e( 42 - 42) =     -1.95302  eV     1   --> A'             
     e( 43 - 43) =     -1.92006  eV     1   --> A'             
     e( 44 - 44) =     -1.76697  eV     1   --> A'             
     e( 45 - 45) =     -1.76682  eV     1   --> A''            
     e( 46 - 46) =     -1.75416  eV     1   --> A'             
     e( 47 - 47) =     -1.70042  eV     1   --> A'             
     e( 48 - 48) =     -1.70027  eV     1   --> A''            
     e( 49 - 49) =      3.95508  eV     1   --> A'             
     e( 50 - 50) =      3.96062  eV     1   --> A'             
     e( 51 - 51) =      3.97393  eV     1   --> A'             
     e( 52 - 52) =      4.80436  eV     1   --> A'             
     e( 53 - 53) =      4.80450  eV     1   --> A''            
     e( 54 - 55) =      4.82297  eV     2   --> A'             
     e( 54 - 55) =      4.82297  eV     2   --> A''            
     e( 56 - 56) =      5.13320  eV     1   --> A'             
     e( 57 - 57) =      5.23521  eV     1   --> A''            
     e( 58 - 58) =      5.23532  eV     1   --> A'             
     e( 59 - 59) =      5.47570  eV     1   --> A'             
     e( 60 - 61) =      5.58098  eV     2   --> A'             
     e( 60 - 61) =      5.58098  eV     2   --> A''            
     e( 62 - 62) =      5.78866  eV     1   --> A'             
     e( 63 - 63) =      5.91410  eV     1   --> A'             
     e( 64 - 64) =      5.91987  eV     1   --> A'             
     e( 65 - 66) =      6.06925  eV     2   --> A'             
     e( 65 - 66) =      6.06925  eV     2   --> A''            
     e( 67 - 68) =      6.16348  eV     2   --> A'             
     e( 67 - 68) =      6.16348  eV     2   --> A''            
     e( 69 - 69) =      6.82203  eV     1   --> A''            
     e( 70 - 70) =      6.91808  eV     1   --> A''            
     e( 71 - 71) =      6.95369  eV     1   --> A''            
     e( 72 - 72) =      6.98507  eV     1   --> A''            
     e( 73 - 74) =      7.06454  eV     2   --> A'             
     e( 73 - 74) =      7.06454  eV     2   --> A''            
     e( 75 - 75) =      7.11005  eV     1   --> A'             
     e( 76 - 76) =      7.11578  eV     1   --> A''            
     e( 77 - 77) =      7.11593  eV     1   --> A'             
     e( 78 - 79) =      7.35058  eV     2   --> A'             
     e( 78 - 79) =      7.35058  eV     2   --> A''            
     e( 80 - 80) =      7.50075  eV     1   --> A'             
     e( 81 - 82) =      7.69264  eV     2   --> A'             
     e( 81 - 82) =      7.69264  eV     2   --> A''            
     e( 83 - 83) =      7.74973  eV     1   --> A'             
     e( 84 - 84) =      7.80662  eV     1   --> A'             
     e( 85 - 85) =      8.35281  eV     1   --> A'             
     e( 86 - 86) =      8.35291  eV     1   --> A''            
     e( 87 - 87) =      8.47556  eV     1   --> A'             
     e( 88 - 89) =      8.62643  eV     2   --> A'             
     e( 88 - 89) =      8.62643  eV     2   --> A''            
     e( 90 - 90) =      8.89247  eV     1   --> A'             
     e( 91 - 91) =      9.05868  eV     1   --> A''            
     e( 92 - 93) =      9.18913  eV     2   --> A'             
     e( 92 - 93) =      9.18913  eV     2   --> A''            
     e( 94 - 94) =      9.30848  eV     1   --> A''            
     e( 95 - 95) =      9.32982  eV     1   --> A'             
     e( 96 - 97) =      9.46495  eV     2   --> A'             
     e( 96 - 97) =      9.46495  eV     2   --> A''            
     e( 98 - 98) =      9.54395  eV     1   --> A'             
     e( 99 - 99) =      9.94314  eV     1   --> A'             
     e(100 -100) =     10.25471  eV     1   --> A'             
     e(101 -101) =     10.29344  eV     1   --> A'             
     e(102 -102) =     10.45663  eV     1   --> A''            
     e(103 -103) =     10.47844  eV     1   --> A''            
     e(104 -104) =     10.51071  eV     1   --> A''            
     e(105 -105) =     10.67828  eV     1   --> A''            
     e(106 -106) =     10.91682  eV     1   --> A'             
     e(107 -107) =     11.60794  eV     1   --> A'             
     e(108 -108) =     11.63133  eV     1   --> A'             
     e(109 -109) =     12.72912  eV     1   --> A'             
     e(110 -110) =     12.86930  eV     1   --> A'             
     e(111 -112) =     13.05754  eV     2   --> A'             
     e(111 -112) =     13.05754  eV     2   --> A''            
     e(113 -114) =     13.08502  eV     2   --> A'             
     e(113 -114) =     13.08502  eV     2   --> A''            
     e(115 -116) =     13.10808  eV     2   --> A'             
     e(115 -116) =     13.10808  eV     2   --> A''            
     e(117 -118) =     13.33143  eV     2   --> A'             
     e(117 -118) =     13.33143  eV     2   --> A''            
     e(119 -119) =     13.41070  eV     1   --> A''            
     e(120 -120) =     13.44708  eV     1   --> A''            
     e(121 -122) =     13.59084  eV     2   --> A'             
     e(121 -122) =     13.59084  eV     2   --> A''            
     e(123 -123) =     13.79635  eV     1   --> A'             
     e(124 -124) =     14.30472  eV     1   --> A''            
     e(125 -125) =     14.36207  eV     1   --> A'             
     e(126 -127) =     14.43753  eV     2   --> A'             
     e(126 -127) =     14.43753  eV     2   --> A''            
     e(128 -128) =     14.59172  eV     1   --> A''            
     e(129 -129) =     14.61840  eV     1   --> A''            
     e(130 -130) =     14.71653  eV     1   --> A'             

 **************************************************************************

 **************************************************************************

                    xk=(   0.00000,   0.00000,   0.00000  )

     point group C_2h (2/m) 
     there are  4 classes
     the character table:

       E     C2    i     s_h  
A_g    1.00  1.00  1.00  1.00
B_g    1.00 -1.00  1.00 -1.00
A_u    1.00  1.00 -1.00 -1.00
B_u    1.00 -1.00 -1.00  1.00

     the symmetry operations in each class and the name of the first element:

     E        1
                                                                 
     C2       2
                                                                 
     i        3
                                                                 
     s_h      4
                                                                 

     Band symmetry, C_2h (2/m)  point group:

     e(  1 -  2) =    -63.65617  eV     2   --> A_g            
     e(  1 -  2) =    -63.65617  eV     2   --> B_u            
     e(  3 -  6) =    -63.62478  eV     4   --> A_g            
     e(  3 -  6) =    -63.62478  eV     4   --> B_g            
     e(  3 -  6) =    -63.62478  eV     4   --> A_u            
     e(  3 -  6) =    -63.62478  eV     4   --> B_u            
     e(  7 -  8) =    -63.60723  eV     2   --> A_g            
     e(  7 -  8) =    -63.60723  eV     2   --> B_u            
     e(  9 - 12) =    -28.15923  eV     4   --> A_g            
     e(  9 - 12) =    -28.15923  eV     4   --> B_g            
     e(  9 - 12) =    -28.15923  eV     4   --> A_u            
     e(  9 - 12) =    -28.15923  eV     4   --> B_u            
     e( 13 - 14) =    -28.11098  eV     2   --> A_g            
     e( 13 - 14) =    -28.11098  eV     2   --> B_u            
     e( 15 - 16) =    -27.94487  eV     2   --> B_g            
     e( 15 - 16) =    -27.94487  eV     2   --> A_u            
     e( 17 - 18) =    -27.90054  eV     2   --> A_g            
     e( 17 - 18) =    -27.90054  eV     2   --> B_u            
     e( 19 - 22) =    -27.83615  eV     4   --> A_g            
     e( 19 - 22) =    -27.83615  eV     4   --> B_g            
     e( 19 - 22) =    -27.83615  eV     4   --> A_u            
     e( 19 - 22) =    -27.83615  eV     4   --> B_u            
     e( 23 - 24) =    -27.74548  eV     2   --> A_g            
     e( 23 - 24) =    -27.74548  eV     2   --> B_u            
     e( 25 - 26) =    -27.74005  eV     2   --> B_g            
     e( 25 - 26) =    -27.74005  eV     2   --> A_u            
     e( 27 - 30) =    -27.65410  eV     4   --> A_g            
     e( 27 - 30) =    -27.65410  eV     4   --> B_g            
     e( 27 - 30) =    -27.65410  eV     4   --> A_u            
     e( 27 - 30) =    -27.65410  eV     4   --> B_u            
     e( 31 - 32) =    -27.54687  eV     2   --> A_g            
     e( 31 - 32) =    -27.54687  eV     2   --> B_u            
     e( 33 - 33) =     -4.17821  eV     1   --> A_g            
     e( 34 - 34) =     -3.90394  eV     1   --> B_u            
     e( 35 - 35) =     -2.85198  eV     1   --> A_g            
     e( 36 - 36) =     -2.59179  eV     1   --> B_u            
     e( 37 - 37) =     -2.29364  eV     1   --> A_u            
     e( 38 - 38) =     -2.29341  eV     1   --> A_g            
     e( 39 - 39) =     -2.11680  eV     1   --> B_g            
     e( 40 - 40) =     -2.11658  eV     1   --> B_u            
     e( 41 - 41) =     -1.98613  eV     1   --> A_g            
     e( 42 - 42) =     -1.95557  eV     1   --> B_u            
     e( 43 - 43) =     -1.91937  eV     1   --> B_u            
     e( 44 - 44) =     -1.76699  eV     1   --> A_g            
     e( 45 - 45) =     -1.76684  eV     1   --> A_u            
     e( 46 - 46) =     -1.75424  eV     1   --> A_g            
     e( 47 - 47) =     -1.70040  eV     1   --> B_u            
     e( 48 - 48) =     -1.70026  eV     1   --> B_g            
     e( 49 - 49) =      3.95504  eV     1   --> A_g            
     e( 50 - 50) =      3.96065  eV     1   --> B_u            
     e( 51 - 51) =      3.97261  eV     1   --> A_g            
     e( 52 - 52) =      4.80436  eV     1   --> A_g            
     e( 53 - 53) =      4.80449  eV     1   --> A_u            
     e( 54 - 55) =      4.82294  eV     2   --> B_g            
     e( 54 - 55) =      4.82294  eV     2   --> B_u            
     e( 56 - 56) =      5.13668  eV     1   --> B_u            
     e( 57 - 57) =      5.23491  eV     1   --> A_u            
     e( 58 - 58) =      5.23502  eV     1   --> A_g            
     e( 59 - 59) =      5.47537  eV     1   --> A_g            
     e( 60 - 61) =      5.58188  eV     2   --> B_g            
     e( 60 - 61) =      5.58188  eV     2   --> B_u            
     e( 62 - 62) =      5.78844  eV     1   --> A_g            
     e( 63 - 63) =      5.91386  eV     1   --> B_u            
     e( 64 - 64) =      5.91949  eV     1   --> B_u            
     e( 65 - 66) =      6.06864  eV     2   --> A_g            
     e( 65 - 66) =      6.06864  eV     2   --> A_u            
     e( 67 - 68) =      6.16345  eV     2   --> B_g            
     e( 67 - 68) =      6.16345  eV     2   --> B_u            
     e( 69 - 69) =      6.82189  eV     1   --> A_u            
     e( 70 - 70) =      6.91824  eV     1   --> B_g            
     e( 71 - 71) =      6.95364  eV     1   --> B_g            
     e( 72 - 72) =      6.98512  eV     1   --> A_u            
     e( 73 - 74) =      7.06425  eV     2   --> A_g            
     e( 73 - 74) =      7.06425  eV     2   --> A_u            
     e( 75 - 75) =      7.10825  eV     1   --> B_u            
     e( 76 - 76) =      7.11553  eV     1   --> A_u            
     e( 77 - 77) =      7.11568  eV     1   --> A_g            
     e( 78 - 79) =      7.35066  eV     2   --> B_g            
     e( 78 - 79) =      7.35066  eV     2   --> B_u            
     e( 80 - 80) =      7.50045  eV     1   --> A_g            
     e( 81 - 82) =      7.69347  eV     2   --> B_g            
     e( 81 - 82) =      7.69347  eV     2   --> B_u            
     e( 83 - 83) =      7.75026  eV     1   --> B_u            
     e( 84 - 84) =      7.80417  eV     1   --> A_g            
     e( 85 - 85) =      8.35255  eV     1   --> B_u            
     e( 86 - 86) =      8.35266  eV     1   --> B_g            
     e( 87 - 87) =      8.47915  eV     1   --> A_g            
     e( 88 - 89) =      8.62677  eV     2   --> A_g            
     e( 88 - 89) =      8.62677  eV     2   --> A_u            
     e( 90 - 90) =      8.89069  eV     1   --> B_u            
     e( 91 - 91) =      9.05829  eV     1   --> A_u            
     e( 92 - 93) =      9.18883  eV     2   --> A_g            
     e( 92 - 93) =      9.18883  eV     2   --> A_u            
     e( 94 - 94) =      9.30887  eV     1   --> B_g            
     e( 95 - 95) =      9.32992  eV     1   --> A_g            
     e( 96 - 97) =      9.46479  eV     2   --> B_g            
     e( 96 - 97) =      9.46479  eV     2   --> B_u            
     e( 98 - 98) =      9.54809  eV     1   --> B_u            
     e( 99 - 99) =      9.94408  eV     1   --> A_g            
     e(100 -100) =     10.24967  eV     1   --> B_u            
     e(101 -101) =     10.29424  eV     1   --> A_g            
     e(102 -102) =     10.45662  eV     1   --> A_u            
     e(103 -103) =     10.47848  eV     1   --> B_g            
     e(104 -104) =     10.51044  eV     1   --> B_g            
     e(105 -105) =     10.67854  eV     1   --> A_u            
     e(106 -106) =     10.91665  eV     1   --> B_u            
     e(107 -107) =     11.60808  eV     1   --> A_g            
     e(108 -108) =     11.63162  eV     1   --> B_u            
     e(109 -109) =     12.72896  eV     1   --> A_g            
     e(110 -110) =     12.86960  eV     1   --> B_u            
     e(111 -112) =     13.05769  eV     2   --> A_g            
     e(111 -112) =     13.05769  eV     2   --> A_u            
     e(113 -114) =     13.08484  eV     2   --> B_g            
     e(113 -114) =     13.08484  eV     2   --> B_u            
     e(115 -116) =     13.10803  eV     2   --> A_g            
     e(115 -116) =     13.10803  eV     2   --> A_u            
     e(117 -118) =     13.33219  eV     2   --> B_g            
     e(117 -118) =     13.33219  eV     2   --> B_u            
     e(119 -119) =     13.41066  eV     1   --> B_g            
     e(120 -120) =     13.44716  eV     1   --> A_u            
     e(121 -122) =     13.58979  eV     2   --> A_g            
     e(121 -122) =     13.58979  eV     2   --> A_u            
     e(123 -123) =     13.79517  eV     1   --> A_g            
     e(124 -124) =     14.30420  eV     1   --> B_g            
     e(125 -125) =     14.36228  eV     1   --> A_g            
     e(126 -127) =     14.43842  eV     2   --> B_g            
     e(126 -127) =     14.43842  eV     2   --> B_u            
     e(128 -128) =     14.59086  eV     1   --> A_u            
     e(129 -129) =     14.61887  eV     1   --> A_u            
     e(130 -130) =     14.71662  eV     1   --> B_u            

 **************************************************************************

     BANDS        :   8m19.59s CPU  10m48.01s WALL


   This run was terminated on:  17:19:20   8Aug2023            

=------------------------------------------------------------------------------=
   JOB DONE.
=------------------------------------------------------------------------------=
