
     Program PWSCF v.6.6 starts on  5Jul2023 at 16: 1:59 

     This program is part of the open-source Quantum ESPRESSO suite
     for quantum simulation of materials; please cite
         "P. Giannozzi et al., J. Phys.:Condens. Matter 21 395502 (2009);
         "P. Giannozzi et al., J. Phys.:Condens. Matter 29 465901 (2017);
          URL http://www.quantum-espresso.org", 
     in publications or presentations arising from this work. More details at
     http://www.quantum-espresso.org/quote

     Parallel version (MPI & OpenMP), running on     128 processor cores
     Number of MPI processes:               128
     Threads/MPI process:                     1

     MPI processes distributed on     1 nodes
     R & G space division:  proc/nbgrp/npool/nimage =     128
     Fft bands division:     nmany     =       1
     Waiting for input...
     Reading input from standard input

     Current dimensions of program PWSCF are:
     Max number of different atomic species (ntypx) = 10
     Max number of k-points (npk) =  40000
     Max angular momentum in pseudopotentials (lmaxx) =  3
     file W.pbe-spn-kjpaw_psl.1.0.0.UPF: wavefunction(s)  6S 5P 5D renormalized
     file S.pbe-n-kjpaw_psl.1.0.0.UPF: wavefunction(s)  3S 3P renormalized

     --------------------------------------------
     Parameters for DFT-D3 Dispersion Correction:
     --------------------------------------------
       Reference C6 values for interpolation: 

         atom   Coordination number   C6
         S          0.000           268.01
         S          0.995           261.99
         S          1.990           251.62
         W          0.000          1628.72
         W          1.929          1086.81
         W         10.915           796.19

       Values used:

         atom   Coordination number  R0_AB[au]  C6      C8
         W          9.217            3.766    796.19 128250.55
         W          9.217            3.766    796.19 128250.55
         W          9.217            3.766    796.19 128250.55
         W          9.217            3.766    796.19 128250.55
         W          9.217            3.766    796.19 128250.55
         W          9.217            3.766    796.19 128250.55
         W          9.217            3.766    796.19 128250.55
         W          9.217            3.766    796.19 128250.55
         S          3.531            3.128    251.62  12327.25
         S          3.531            3.128    251.62  12327.25
         S          3.531            3.128    251.62  12327.25
         S          3.531            3.128    251.62  12327.25
         S          3.531            3.128    251.62  12327.25
         S          3.531            3.128    251.62  12327.25
         S          3.531            3.128    251.62  12327.25
         S          3.531            3.128    251.62  12327.25
         S          3.631            3.128    251.62  12327.25
         S          3.631            3.128    251.62  12327.25
         S          3.631            3.128    251.62  12327.25
         S          3.631            3.128    251.62  12327.25
         S          3.631            3.128    251.62  12327.25
         S          3.631            3.128    251.62  12327.25
         S          3.631            3.128    251.62  12327.25
         S          3.631            3.128    251.62  12327.25

         Molecular C6 ( Ry / a.u.^6 ) =    229679.22


     Subspace diagonalization in iterative solution of the eigenvalue problem:
     a serial algorithm will be used

     Found symmetry operation: I + (  0.0000 -0.5000  0.0000)
     This is a supercell, fractional translations are disabled
     Message from routine setup:
     using ibrav=0 with symmetry is DISCOURAGED, use correct ibrav instead

     Parallelization info
     --------------------
     sticks:   dense  smooth     PW     G-vecs:    dense   smooth      PW
     Min          92      74     20                 4403     3150     442
     Max          93      75     21                 4408     3153     445
     Sum       11885    9483   2581               564009   403427   56781



     bravais-lattice index     =            0
     lattice parameter (alat)  =      24.2792  a.u.
     unit-cell volume          =    2987.0491 (a.u.)^3
     number of atoms/cell      =           24
     number of atomic types    =            2
     number of electrons       =       208.00
     number of Kohn-Sham states=          130
     kinetic-energy cutoff     =     100.0000  Ry
     charge density cutoff     =     500.0000  Ry
     convergence threshold     =      1.0E-08
     mixing beta               =       0.4000
     number of iterations used =            8  plain     mixing
     Exchange-correlation= SLA PW PBX PBC
                           (   1   4   3   4   0   0   0)

     celldm(1)=  24.279201  celldm(2)=   0.000000  celldm(3)=   0.000000
     celldm(4)=   0.000000  celldm(5)=   0.000000  celldm(6)=   0.000000

     crystal axes: (cart. coord. in units of alat)
               a(1) = (   1.008231   0.000000   0.005366 )  
               a(2) = (   0.000000   0.502397   0.000000 )  
               a(3) = (  -0.171267   0.000000   0.411122 )  

     reciprocal axes: (cart. coord. in units 2 pi/alat)
               b(1) = (  0.989642 -0.000000  0.412271 )  
               b(2) = (  0.000000  1.990459 -0.000000 )  
               b(3) = ( -0.012916  0.000000  2.426987 )  


     PseudoPot. # 1 for W  read from file:
     /scratch/bell/mandal13/Work_Data_1/Other-colab-projects/WS2_Li_Group_project/PP/W.pbe-spn-kjpaw_psl.1.0.0.UPF
     MD5 check sum: 03c3df5b60893f488392c7401945500a
     Pseudo is Projector augmented-wave + core cor, Zval = 14.0
     Generated using "atomic" code by A. Dal Corso v.6.2.2
     Shape of augmentation charge: PSQ
     Using radial grid of 1273 points,  6 beta functions with: 
                l(1) =   0
                l(2) =   0
                l(3) =   1
                l(4) =   1
                l(5) =   2
                l(6) =   2
     Q(r) pseudized with 0 coefficients 


     PseudoPot. # 2 for S  read from file:
     /scratch/bell/mandal13/Work_Data_1/Other-colab-projects/WS2_Li_Group_project/PP/S.pbe-n-kjpaw_psl.1.0.0.UPF
     MD5 check sum: fb45dfebcf3e72a4e1bd4a866ec2e262
     Pseudo is Projector augmented-wave + core cor, Zval =  6.0
     Generated using "atomic" code by A. Dal Corso v.6.3
     Shape of augmentation charge: PSQ
     Using radial grid of 1151 points,  6 beta functions with: 
                l(1) =   0
                l(2) =   0
                l(3) =   1
                l(4) =   1
                l(5) =   2
                l(6) =   2
     Q(r) pseudized with 0 coefficients 


     atomic species   valence    mass     pseudopotential
        W             14.00   183.84000     W ( 1.00)
        S              6.00    32.06500     S ( 1.00)

     Starting magnetic structure 
     atomic species   magnetization
        W            0.300
        S            0.100

      4 Sym. Ops., with inversion, found



   Cartesian axes

     site n.     atom                  positions (alat units)
         1           W   tau(   1) = (   0.1953179   0.1255991   0.1233212  )
         2           W   tau(   2) = (   0.1953179   0.3767975   0.1233212  )
         3           W   tau(   3) = (   0.6416454   0.1255991   0.2931665  )
         4           W   tau(   4) = (   0.6416454   0.3767975   0.2931665  )
         5           W   tau(   5) = (   0.6994326  -0.0000000   0.1260040  )
         6           W   tau(   6) = (   0.6994327   0.2511983   0.1260039  )
         7           W   tau(   7) = (   0.1375306  -0.0000000   0.2904837  )
         8           W   tau(   8) = (   0.1375306   0.2511983   0.2904837  )
         9           S   tau(   9) = (   0.0576492   0.0000000   0.1199520  )
        10           S   tau(  10) = (   0.0576492   0.2511983   0.1199520  )
        11           S   tau(  11) = (   0.7793141   0.0000000   0.2965356  )
        12           S   tau(  12) = (   0.7793141   0.2511983   0.2965356  )
        13           S   tau(  13) = (   0.5617641   0.1255992   0.1226348  )
        14           S   tau(  14) = (   0.5617641   0.3767974   0.1226348  )
        15           S   tau(  15) = (   0.2751992   0.1255992   0.2938527  )
        16           S   tau(  16) = (   0.2751992   0.3767974   0.2938527  )
        17           S   tau(  17) = (   0.3313441   0.0000000   0.0740774  )
        18           S   tau(  18) = (   0.3313441   0.2511983   0.0740775  )
        19           S   tau(  19) = (   0.5056192   0.0000000   0.3424101  )
        20           S   tau(  20) = (   0.5056192   0.2511983   0.3424101  )
        21           S   tau(  21) = (   0.8354589   0.1255991   0.0767601  )
        22           S   tau(  22) = (   0.8354589   0.3767975   0.0767601  )
        23           S   tau(  23) = (   0.0015044   0.1255991   0.3397275  )
        24           S   tau(  24) = (   0.0015044   0.3767975   0.3397275  )

     number of k points=    40  Gaussian smearing, width (Ry)=  0.0100
                       cart. coord. in units 2pi/alat
        k(    1) = (   0.0000000   0.0000000   0.0000000), wk =   0.0092593
        k(    2) = (  -0.0021526   0.0000000   0.4044978), wk =   0.0185185
        k(    3) = (  -0.0043052   0.0000000   0.8089957), wk =   0.0185185
        k(    4) = (   0.0064579   0.0000000  -1.2134935), wk =   0.0092593
        k(    5) = (   0.0000000   0.3317432   0.0000000), wk =   0.0185185
        k(    6) = (  -0.0021526   0.3317432   0.4044978), wk =   0.0370370
        k(    7) = (  -0.0043052   0.3317432   0.8089957), wk =   0.0370370
        k(    8) = (   0.0064579   0.3317432  -1.2134935), wk =   0.0185185
        k(    9) = (   0.0000000   0.6634865   0.0000000), wk =   0.0185185
        k(   10) = (  -0.0021526   0.6634865   0.4044978), wk =   0.0370370
        k(   11) = (  -0.0043052   0.6634865   0.8089957), wk =   0.0370370
        k(   12) = (   0.0064579   0.6634865  -1.2134935), wk =   0.0185185
        k(   13) = (   0.0000000  -0.9952297   0.0000000), wk =   0.0092593
        k(   14) = (  -0.0021526  -0.9952297   0.4044978), wk =   0.0185185
        k(   15) = (  -0.0043052  -0.9952297   0.8089957), wk =   0.0185185
        k(   16) = (   0.0064579  -0.9952297  -1.2134935), wk =   0.0092593
        k(   17) = (   0.3298808   0.0000000   0.1374235), wk =   0.0185185
        k(   18) = (   0.3277282   0.0000000   0.5419213), wk =   0.0185185
        k(   19) = (   0.3255756   0.0000000   0.9464192), wk =   0.0185185
        k(   20) = (   0.3363387   0.0000000  -1.0760700), wk =   0.0185185
        k(   21) = (   0.3341861   0.0000000  -0.6715721), wk =   0.0185185
        k(   22) = (   0.3320334   0.0000000  -0.2670743), wk =   0.0185185
        k(   23) = (   0.3298808   0.3317432   0.1374235), wk =   0.0370370
        k(   24) = (   0.3277282   0.3317432   0.5419213), wk =   0.0370370
        k(   25) = (   0.3255756   0.3317432   0.9464192), wk =   0.0370370
        k(   26) = (   0.3363387   0.3317432  -1.0760700), wk =   0.0370370
        k(   27) = (   0.3341861   0.3317432  -0.6715721), wk =   0.0370370
        k(   28) = (   0.3320334   0.3317432  -0.2670743), wk =   0.0370370
        k(   29) = (   0.3298808   0.6634865   0.1374235), wk =   0.0370370
        k(   30) = (   0.3277282   0.6634865   0.5419213), wk =   0.0370370
        k(   31) = (   0.3255756   0.6634865   0.9464192), wk =   0.0370370
        k(   32) = (   0.3363387   0.6634865  -1.0760700), wk =   0.0370370
        k(   33) = (   0.3341861   0.6634865  -0.6715721), wk =   0.0370370
        k(   34) = (   0.3320334   0.6634865  -0.2670743), wk =   0.0370370
        k(   35) = (   0.3298808  -0.9952297   0.1374235), wk =   0.0185185
        k(   36) = (   0.3277282  -0.9952297   0.5419213), wk =   0.0185185
        k(   37) = (   0.3255756  -0.9952297   0.9464192), wk =   0.0185185
        k(   38) = (   0.3363387  -0.9952297  -1.0760700), wk =   0.0185185
        k(   39) = (   0.3341861  -0.9952297  -0.6715721), wk =   0.0185185
        k(   40) = (   0.3320334  -0.9952297  -0.2670743), wk =   0.0185185

     Dense  grid:   564009 G-vectors     FFT dimensions: ( 180,  90,  80)

     Smooth grid:   403427 G-vectors     FFT dimensions: ( 160,  80,  72)

     Estimated max dynamical RAM per process >      90.31 MB

     Estimated total dynamical RAM >      11.29 GB
     Generating pointlists ...
     new r_m :   0.0769 (alat units)  1.8667 (a.u.) for type    1
     new r_m :   0.0769 (alat units)  1.8667 (a.u.) for type    2

     Initial potential from superposition of free atoms

     starting charge  207.99502, renormalised to  208.00000
     Starting wfcs are  168 randomized atomic wfcs
     Checking if some PAW data can be deallocated... 

     total cpu time spent up to now is       23.4 secs

     Self-consistent Calculation

     iteration #  1     ecut=   100.00 Ry     beta= 0.40
     Davidson diagonalization with overlap
     ethr =  1.00E-02,  avg # of iterations =  3.1

     Threshold (ethr) on eigenvalues was too large:
     Diagonalizing with lowered threshold

     Davidson diagonalization with overlap
     ethr =  8.53E-04,  avg # of iterations =  1.6

     total cpu time spent up to now is      121.8 secs

     total energy              =   -7143.58860374 Ry
     estimated scf accuracy    <       1.83920112 Ry

     total magnetization       =     5.16 Bohr mag/cell
     absolute magnetization    =     7.20 Bohr mag/cell

     iteration #  2     ecut=   100.00 Ry     beta= 0.40
     Davidson diagonalization with overlap
     ethr =  8.84E-04,  avg # of iterations =  1.7

     total cpu time spent up to now is      163.6 secs

     total energy              =   -7143.91341639 Ry
     estimated scf accuracy    <       0.77093569 Ry

     total magnetization       =     3.52 Bohr mag/cell
     absolute magnetization    =     5.30 Bohr mag/cell

     iteration #  3     ecut=   100.00 Ry     beta= 0.40
     Davidson diagonalization with overlap
     ethr =  3.71E-04,  avg # of iterations =  2.2

     total cpu time spent up to now is      210.3 secs

     total energy              =   -7144.19682686 Ry
     estimated scf accuracy    <       0.47469356 Ry

     total magnetization       =     2.50 Bohr mag/cell
     absolute magnetization    =     4.13 Bohr mag/cell

     iteration #  4     ecut=   100.00 Ry     beta= 0.40
     Davidson diagonalization with overlap
     ethr =  2.28E-04,  avg # of iterations =  1.7

     total cpu time spent up to now is      251.3 secs

     total energy              =   -7144.29066521 Ry
     estimated scf accuracy    <       0.04597195 Ry

     total magnetization       =     1.28 Bohr mag/cell
     absolute magnetization    =     2.44 Bohr mag/cell

     iteration #  5     ecut=   100.00 Ry     beta= 0.40
     Davidson diagonalization with overlap
     ethr =  2.21E-05,  avg # of iterations =  8.3

     total cpu time spent up to now is      313.4 secs

     total energy              =   -7144.29712614 Ry
     estimated scf accuracy    <       0.04966693 Ry

     total magnetization       =     0.49 Bohr mag/cell
     absolute magnetization    =     1.34 Bohr mag/cell

     iteration #  6     ecut=   100.00 Ry     beta= 0.40
     Davidson diagonalization with overlap
     ethr =  2.21E-05,  avg # of iterations =  2.3

     total cpu time spent up to now is      359.0 secs

     total energy              =   -7144.30662355 Ry
     estimated scf accuracy    <       0.02103951 Ry

     total magnetization       =     0.34 Bohr mag/cell
     absolute magnetization    =     1.04 Bohr mag/cell

     iteration #  7     ecut=   100.00 Ry     beta= 0.40
     Davidson diagonalization with overlap
     ethr =  1.01E-05,  avg # of iterations =  1.4

     total cpu time spent up to now is      399.0 secs

     total energy              =   -7144.30989385 Ry
     estimated scf accuracy    <       0.00170036 Ry

     total magnetization       =     0.19 Bohr mag/cell
     absolute magnetization    =     0.75 Bohr mag/cell

     iteration #  8     ecut=   100.00 Ry     beta= 0.40
     Davidson diagonalization with overlap
     c_bands:  1 eigenvalues not converged
     ethr =  8.17E-07,  avg # of iterations =  6.5

     total cpu time spent up to now is      457.4 secs

     total energy              =   -7144.31065350 Ry
     estimated scf accuracy    <       0.00133099 Ry

     total magnetization       =     0.10 Bohr mag/cell
     absolute magnetization    =     0.47 Bohr mag/cell

     iteration #  9     ecut=   100.00 Ry     beta= 0.40
     Davidson diagonalization with overlap
     ethr =  6.40E-07,  avg # of iterations =  2.1

     total cpu time spent up to now is      502.3 secs

     total energy              =   -7144.31111470 Ry
     estimated scf accuracy    <       0.00054258 Ry

     total magnetization       =     0.05 Bohr mag/cell
     absolute magnetization    =     0.32 Bohr mag/cell

     iteration # 10     ecut=   100.00 Ry     beta= 0.40
     Davidson diagonalization with overlap
     ethr =  2.61E-07,  avg # of iterations =  2.3

     total cpu time spent up to now is      547.7 secs

     total energy              =   -7144.31128789 Ry
     estimated scf accuracy    <       0.00002566 Ry

     total magnetization       =     0.01 Bohr mag/cell
     absolute magnetization    =     0.17 Bohr mag/cell

     iteration # 11     ecut=   100.00 Ry     beta= 0.40
     Davidson diagonalization with overlap
     ethr =  1.23E-08,  avg # of iterations =  5.7

     total cpu time spent up to now is      616.7 secs

     total energy              =   -7144.31131444 Ry
     estimated scf accuracy    <       0.00003114 Ry

     total magnetization       =     0.00 Bohr mag/cell
     absolute magnetization    =     0.08 Bohr mag/cell

     iteration # 12     ecut=   100.00 Ry     beta= 0.40
     Davidson diagonalization with overlap
     ethr =  1.23E-08,  avg # of iterations =  2.0

     total cpu time spent up to now is      663.4 secs

     total energy              =   -7144.31133156 Ry
     estimated scf accuracy    <       0.00001114 Ry

     total magnetization       =     0.00 Bohr mag/cell
     absolute magnetization    =     0.08 Bohr mag/cell

     iteration # 13     ecut=   100.00 Ry     beta= 0.40
     Davidson diagonalization with overlap
     ethr =  5.35E-09,  avg # of iterations =  3.4

     total cpu time spent up to now is      718.3 secs

     total energy              =   -7144.31134029 Ry
     estimated scf accuracy    <       0.00000133 Ry

     total magnetization       =    -0.00 Bohr mag/cell
     absolute magnetization    =     0.03 Bohr mag/cell

     iteration # 14     ecut=   100.00 Ry     beta= 0.40
     Davidson diagonalization with overlap
     ethr =  6.41E-10,  avg # of iterations =  4.3

     total cpu time spent up to now is      781.1 secs

     total energy              =   -7144.31134146 Ry
     estimated scf accuracy    <       0.00000032 Ry

     total magnetization       =    -0.00 Bohr mag/cell
     absolute magnetization    =     0.01 Bohr mag/cell

     iteration # 15     ecut=   100.00 Ry     beta= 0.40
     Davidson diagonalization with overlap
     ethr =  1.52E-10,  avg # of iterations =  4.0

     total cpu time spent up to now is      839.6 secs

     total energy              =   -7144.31134178 Ry
     estimated scf accuracy    <       0.00000009 Ry

     total magnetization       =    -0.00 Bohr mag/cell
     absolute magnetization    =     0.00 Bohr mag/cell

     iteration # 16     ecut=   100.00 Ry     beta= 0.40
     Davidson diagonalization with overlap
     ethr =  4.37E-11,  avg # of iterations =  2.2

     total cpu time spent up to now is      887.0 secs

     total energy              =   -7144.31134183 Ry
     estimated scf accuracy    <       0.00000004 Ry

     total magnetization       =    -0.00 Bohr mag/cell
     absolute magnetization    =     0.00 Bohr mag/cell

     iteration # 17     ecut=   100.00 Ry     beta= 0.40
     Davidson diagonalization with overlap
     ethr =  1.99E-11,  avg # of iterations =  2.0

     Magnetic moment per site:
     atom:    1    charge:   10.3475    magn:   -0.0000    constr:    0.0000
     atom:    2    charge:   10.3475    magn:   -0.0000    constr:    0.0000
     atom:    3    charge:   10.3475    magn:   -0.0000    constr:    0.0000
     atom:    4    charge:   10.3475    magn:   -0.0000    constr:    0.0000
     atom:    5    charge:   10.3474    magn:   -0.0000    constr:    0.0000
     atom:    6    charge:   10.3474    magn:   -0.0000    constr:    0.0000
     atom:    7    charge:   10.3474    magn:   -0.0000    constr:    0.0000
     atom:    8    charge:   10.3474    magn:   -0.0000    constr:    0.0000
     atom:    9    charge:    4.1258    magn:   -0.0000    constr:    0.0000
     atom:   10    charge:    4.1258    magn:   -0.0000    constr:    0.0000
     atom:   11    charge:    4.1258    magn:   -0.0000    constr:    0.0000
     atom:   12    charge:    4.1258    magn:   -0.0000    constr:    0.0000
     atom:   13    charge:    4.1260    magn:   -0.0000    constr:    0.0000
     atom:   14    charge:    4.1260    magn:   -0.0000    constr:    0.0000
     atom:   15    charge:    4.1260    magn:   -0.0000    constr:    0.0000
     atom:   16    charge:    4.1260    magn:   -0.0000    constr:    0.0000
     atom:   17    charge:    4.0997    magn:   -0.0000    constr:    0.0000
     atom:   18    charge:    4.0997    magn:   -0.0000    constr:    0.0000
     atom:   19    charge:    4.0997    magn:   -0.0000    constr:    0.0000
     atom:   20    charge:    4.0997    magn:   -0.0000    constr:    0.0000
     atom:   21    charge:    4.1000    magn:   -0.0000    constr:    0.0000
     atom:   22    charge:    4.1000    magn:   -0.0000    constr:    0.0000
     atom:   23    charge:    4.1000    magn:   -0.0000    constr:    0.0000
     atom:   24    charge:    4.1000    magn:   -0.0000    constr:    0.0000

     total cpu time spent up to now is      931.7 secs

     End of self-consistent calculation

 ------ SPIN UP ------------


          k = 0.0000 0.0000 0.0000 ( 50421 PWs)   bands (ev):

   -63.6554 -63.6554 -63.6240 -63.6240 -63.6240 -63.6239 -63.6064 -63.6064
   -28.1586 -28.1586 -28.1586 -28.1586 -28.1101 -28.1101 -27.9444 -27.9444
   -27.9000 -27.9000 -27.8357 -27.8357 -27.8357 -27.8357 -27.7445 -27.7445
   -27.7396 -27.7396 -27.6528 -27.6528 -27.6528 -27.6528 -27.5455 -27.5455
    -4.1785  -3.9042  -2.8522  -2.5919  -2.2936  -2.2936  -2.1168  -2.1167
    -1.9868  -1.9560  -1.9201  -1.7675  -1.7675  -1.7547  -1.7009  -1.7009
     3.9552   3.9608   3.9730   4.8040   4.8040   4.8224   4.8224   5.1371
     5.2348   5.2348   5.4752   5.5816   5.5816   5.7890   5.9144   5.9193
     6.0686   6.0686   6.1637   6.1637   6.8215   6.9179   6.9536   6.9851
     7.0645   7.0645   7.1082   7.1155   7.1155   7.3508   7.3508   7.5008
     7.6935   7.6935   7.7508   7.8040   8.3522   8.3522   8.4792   8.6263
     8.6263   8.8907   9.0577   9.1896   9.1896   9.3082   9.3299   9.4654
     9.4654   9.5479   9.9444  10.2495  10.2941  10.4572  10.4790  10.5095
    10.6776  10.9165  11.6085  11.6322  12.7294  12.8701  13.0580  13.0580
    13.0853  13.0853  13.1086  13.1086  13.3326  13.3326  13.4114  13.4479
    13.5900  13.5900  13.7957  14.3039  14.3627  14.4386  14.4386  14.5907
    14.6186  14.7170

          k =-0.0022 0.0000 0.4045 ( 50419 PWs)   bands (ev):

   -63.6552 -63.6552 -63.6240 -63.6240 -63.6240 -63.6239 -63.6066 -63.6066
   -28.1618 -28.1618 -28.1618 -28.1618 -28.1036 -28.1036 -27.9435 -27.9435
   -27.9000 -27.9000 -27.8347 -27.8347 -27.8347 -27.8347 -27.7454 -27.7454
   -27.7405 -27.7405 -27.6503 -27.6503 -27.6503 -27.6502 -27.5518 -27.5518
    -4.0635  -3.8177  -2.8143  -2.6458  -2.3214  -2.3214  -2.1831  -2.1748
    -2.1748  -2.0330  -1.9335  -1.7797  -1.7166  -1.7165  -1.6460  -1.6460
     3.8313   4.1710   4.3684   4.4345   4.4345   4.5462   4.5462   5.1860
     5.2736   5.2771   5.2771   5.4783   5.7162   5.7162   6.2031   6.3012
     6.3441   6.3441   6.3659   6.3659   6.8530   6.9019   6.9289   7.0314
     7.0476   7.0477   7.0785   7.1545   7.1545   7.2785   7.4220   7.4220
     7.5057   7.6781   7.6781   8.2306   8.3161   8.3999   8.3999   8.7228
     8.7228   8.8740   9.0152   9.0750   9.1890   9.1890   9.2307   9.4780
     9.4780   9.5461   9.7677  10.0601  10.1609  10.2135  10.2547  10.7204
    10.8022  10.8195  11.4178  11.4726  12.8394  13.0085  13.0251  13.0252
    13.0487  13.0487  13.2026  13.2026  13.3847  13.3943  13.3943  13.4426
    13.8486  13.8486  13.9806  14.1298  14.3868  14.3868  14.4570  14.5585
    14.6516  14.8131

          k =-0.0043 0.0000 0.8090 ( 50459 PWs)   bands (ev):

   -63.6550 -63.6550 -63.6240 -63.6240 -63.6240 -63.6239 -63.6068 -63.6068
   -28.1682 -28.1682 -28.1682 -28.1682 -28.0901 -28.0901 -27.9417 -27.9417
   -27.9002 -27.9002 -27.8329 -27.8329 -27.8329 -27.8329 -27.7472 -27.7472
   -27.7424 -27.7424 -27.6452 -27.6452 -27.6452 -27.6451 -27.5646 -27.5646
    -3.7404  -3.5713  -2.8577  -2.8074  -2.4984  -2.3679  -2.3678  -2.2722
    -2.2621  -2.2620  -1.9544  -1.8044  -1.6301  -1.6301  -1.5574  -1.5574
     4.0241   4.0241   4.0830   4.1120   4.1120   4.4990   4.5211   5.0671
     5.3823   5.3823   5.6034   5.6091   5.9223   5.9223   6.1783   6.2127
     6.4076   6.4077   6.5934   6.5934   6.6884   6.9307   6.9812   7.0280
     7.0280   7.0899   7.1986   7.2316   7.2316   7.2625   7.6904   7.7205
     7.7205   7.8500   7.8501   8.1817   8.3467   8.4290   8.4290   8.5975
     8.5975   8.6428   8.7529   8.9003   9.0558   9.2973   9.4397   9.4397
     9.6243   9.6244   9.6796   9.6975   9.7967   9.9013  10.2847  10.6409
    10.6743  10.7471  11.1762  11.1768  12.9338  12.9338  12.9591  12.9591
    13.1117  13.1746  13.4775  13.4775  13.5349  13.6052  13.6608  13.6777
    13.6777  13.7313  14.1063  14.1063  14.3143  14.3143  14.4199  14.8145
    14.8957  15.0535

          k = 0.0065 0.0000-1.2135 ( 50496 PWs)   bands (ev):

   -63.6548 -63.6548 -63.6240 -63.6240 -63.6240 -63.6239 -63.6070 -63.6070
   -28.1713 -28.1713 -28.1713 -28.1713 -28.0830 -28.0830 -27.9407 -27.9407
   -27.9005 -27.9005 -27.8320 -27.8320 -27.8320 -27.8320 -27.7482 -27.7482
   -27.7434 -27.7433 -27.6426 -27.6426 -27.6426 -27.6426 -27.5712 -27.5711
    -3.2915  -3.2855  -3.2822  -3.0561  -2.5453  -2.3831  -2.3830  -2.3692
    -2.3046  -2.3046  -1.9730  -1.8134  -1.5647  -1.5647  -1.5436  -1.5436
     3.8904   3.8904   3.9183   3.9183   4.4085   4.4464   4.7501   4.7826
     5.4887   5.4887   5.5348   5.8968   5.8969   5.9127   6.3812   6.4136
     6.4442   6.4477   6.4477   6.5783   6.5783   6.9525   6.9765   7.0141
     7.1328   7.1328   7.2926   7.2930   7.2930   7.3668   7.6688   7.6688
     7.8112   7.8145   7.9241   8.2583   8.2583   8.3722   8.3722   8.3776
     8.3776   8.8246   8.8729   8.8971   8.9593   9.3520   9.5511   9.5591
     9.5591   9.6171   9.6367   9.6696   9.8415   9.8415  10.1687  10.4953
    10.6095  10.6883  11.0451  11.1327  12.8538  12.8538  12.8989  12.8989
    13.1591  13.2240  13.3773  13.6610  13.6805  13.7465  13.7465  13.8043
    13.8043  13.8821  14.1174  14.1174  14.3059  14.3367  14.3367  14.7113
    14.9325  14.9934

          k = 0.0000 0.3317 0.0000 ( 50417 PWs)   bands (ev):

   -63.6541 -63.6541 -63.6308 -63.6308 -63.6181 -63.6181 -63.6068 -63.6068
   -28.1483 -28.1483 -28.1467 -28.1467 -28.1075 -28.1075 -27.9623 -27.9623
   -27.8955 -27.8954 -27.8432 -27.8432 -27.8343 -27.8343 -27.7617 -27.7617
   -27.7323 -27.7323 -27.6831 -27.6831 -27.6182 -27.6182 -27.5460 -27.5460
    -4.0912  -3.8165  -2.8203  -2.5500  -2.5112  -2.3482  -2.2880  -2.1366
    -1.9489  -1.9401  -1.8944  -1.8836  -1.8728  -1.7574  -1.5711  -1.5493
     4.0431   4.0719   4.0782   4.7581   4.8886   4.9633   4.9752   5.0250
     5.2320   5.4171   5.4312   5.6186   5.7338   5.7755   5.8062   5.8139
     5.9370   6.3159   6.3407   6.4042   6.7460   6.7611   6.7802   6.8030
     6.8214   6.8305   6.8645   7.3888   7.3959   7.4106   7.4154   7.5281
     7.7325   7.8130   7.8236   7.8969   7.9351   8.2819   8.3370   8.4078
     8.4702   8.6118   8.9574   9.2191   9.3216   9.3877   9.5615   9.6102
     9.6959   9.7030   9.7091   9.7416   9.9408  10.2017  10.2771  10.5407
    10.7480  11.2452  11.7327  11.8076  12.5619  12.7218  12.7781  12.9341
    13.0459  13.0539  13.1370  13.2184  13.3493  13.4254  13.4440  13.4880
    13.6312  13.7383  13.8020  14.0091  14.1586  14.3198  14.4684  14.5642
    14.6410  14.6448

          k =-0.0022 0.3317 0.4045 ( 50434 PWs)   bands (ev):

   -63.6539 -63.6539 -63.6307 -63.6307 -63.6181 -63.6181 -63.6069 -63.6069
   -28.1529 -28.1529 -28.1481 -28.1481 -28.1017 -28.1017 -27.9619 -27.9619
   -27.8953 -27.8952 -27.8428 -27.8427 -27.8325 -27.8325 -27.7628 -27.7628
   -27.7326 -27.7326 -27.6804 -27.6804 -27.6167 -27.6167 -27.5516 -27.5516
    -3.9779  -3.7334  -2.7790  -2.5993  -2.4652  -2.4507  -2.2042  -2.1922
    -2.1558  -2.0138  -1.9050  -1.8845  -1.8790  -1.7767  -1.5377  -1.5310
     3.9411   4.2686   4.4346   4.4364   4.4839   4.7470   4.9832   5.0805
     5.2460   5.2466   5.3738   5.4619   5.8035   5.8460   5.9310   6.1662
     6.2726   6.2899   6.5713   6.5847   6.7044   6.7523   6.7638   6.8134
     6.8317   6.9129   6.9297   7.1531   7.4044   7.4117   7.5478   7.5744
     7.5877   7.7114   7.8860   8.1535   8.1662   8.2304   8.3862   8.4374
     8.4965   8.5549   8.9897   9.1397   9.2014   9.3059   9.3617   9.4095
     9.4750   9.5223   9.6729   9.7585  10.0824  10.2502  10.3374  10.5094
    10.6889  11.0399  11.7176  11.7227  12.5373  12.7056  12.9178  13.0104
    13.0311  13.1488  13.1703  13.3208  13.3232  13.3517  13.3799  13.5769
    13.7775  13.8436  14.0435  14.0448  14.3313  14.4157  14.4297  14.4515
    14.6142  14.7757

          k =-0.0043 0.3317 0.8090 ( 50475 PWs)   bands (ev):

   -63.6537 -63.6537 -63.6307 -63.6307 -63.6182 -63.6182 -63.6072 -63.6072
   -28.1588 -28.1588 -28.1539 -28.1539 -28.0896 -28.0896 -27.9614 -27.9614
   -27.8950 -27.8950 -27.8417 -27.8417 -27.8293 -27.8293 -27.7649 -27.7649
   -27.7332 -27.7332 -27.6748 -27.6748 -27.6140 -27.6140 -27.5632 -27.5632
    -3.6593  -3.4960  -2.7952  -2.7524  -2.4901  -2.4794  -2.3662  -2.3082
    -2.2643  -2.2609  -1.9255  -1.8701  -1.7980  -1.7864  -1.5371  -1.4942
     4.0786   4.0926   4.1919   4.3643   4.5524   4.6103   4.6258   5.1262
     5.1461   5.5292   5.5456   5.6277   5.9352   5.9636   6.1433   6.1891
     6.2456   6.4685   6.5152   6.5445   6.6301   6.7660   6.7789   6.8887
     6.9336   6.9538   7.1597   7.2347   7.2467   7.2928   7.6515   7.6857
     7.8378   7.9544   8.0946   8.1893   8.2535   8.2546   8.5166   8.5388
     8.5410   8.5586   8.8039   8.8262   8.8313   8.9290   9.1399   9.4033
     9.4681   9.5262   9.7254   9.7273  10.0806  10.2827  10.2999  10.5040
    10.5703  10.7112  11.4577  11.5019  12.4851  12.6374  12.9686  13.0108
    13.2242  13.2553  13.3510  13.4770  13.5263  13.5392  13.5614  13.5764
    13.7840  13.7987  13.9594  14.1241  14.3690  14.3804  14.6327  14.6454
    14.6807  14.7906

          k = 0.0065 0.3317-1.2135 ( 50510 PWs)   bands (ev):

   -63.6536 -63.6536 -63.6306 -63.6306 -63.6182 -63.6182 -63.6073 -63.6073
   -28.1604 -28.1604 -28.1580 -28.1580 -28.0831 -28.0831 -27.9613 -27.9613
   -27.8949 -27.8949 -27.8412 -27.8412 -27.8279 -27.8279 -27.7659 -27.7659
   -27.7334 -27.7333 -27.6718 -27.6718 -27.6127 -27.6127 -27.5691 -27.5691
    -3.2277  -3.2105  -3.2083  -2.9872  -2.5273  -2.4611  -2.3653  -2.3559
    -2.3517  -2.3140  -1.9446  -1.8514  -1.8067  -1.7147  -1.5684  -1.4811
     3.9290   4.0185   4.2197   4.3313   4.5266   4.5487   4.8394   4.8535
     5.1781   5.6063   5.7050   5.7974   5.9081   5.9651   6.2002   6.3713
     6.3930   6.4693   6.5061   6.6333   6.6652   6.6695   6.7741   6.7810
     6.8640   6.9629   7.1369   7.1889   7.2453   7.4916   7.5736   7.7522
     8.0396   8.0626   8.0763   8.1243   8.1376   8.3031   8.4591   8.5054
     8.5989   8.6069   8.6718   8.7013   8.7674   8.9491   8.9941   9.5294
     9.5583   9.6888   9.7364   9.8778  10.0121  10.1429  10.1727  10.3847
    10.6149  10.6711  11.3138  11.3410  12.4176  12.5774  12.9317  12.9649
    13.2347  13.3094  13.3408  13.4362  13.6413  13.6498  13.6825  13.7392
    13.8324  13.8579  14.0612  14.0994  14.2023  14.5083  14.5243  14.7468
    14.8148  14.9819

          k = 0.0000 0.6635 0.0000 ( 50447 PWs)   bands (ev):

   -63.6504 -63.6504 -63.6379 -63.6379 -63.6135 -63.6135 -63.6080 -63.6080
   -28.1238 -28.1238 -28.1143 -28.1143 -28.1033 -28.1033 -28.0072 -28.0071
   -27.8849 -27.8848 -27.8560 -27.8559 -27.8331 -27.8331 -27.7917 -27.7917
   -27.7257 -27.7257 -27.7044 -27.7044 -27.5865 -27.5865 -27.5503 -27.5503
    -3.8387  -3.5636  -2.9730  -2.7327  -2.7146  -2.4727  -2.4424  -2.2087
    -1.9322  -1.9057  -1.8477  -1.8162  -1.8132  -1.7695  -1.5694  -1.5366
     4.2725   4.3720   4.3811   4.6770   4.9872   5.1068   5.1512   5.2572
     5.3281   5.3686   5.3787   5.4941   5.6744   5.6824   5.9544   5.9584
     5.9652   6.2570   6.5170   6.6127   6.6227   6.7131   6.7894   6.8708
     6.8790   6.9179   6.9321   7.1560   7.2186   7.3730   7.4647   7.5058
     7.5282   7.6207   7.7032   7.7065   7.9418   8.0006   8.1599   8.2026
     8.4514   8.6169   8.8307   8.8892   8.9275   9.1731   9.3887   9.4342
     9.5825   9.6811   9.8534   9.9034  10.0696  10.0843  10.2382  10.6966
    10.9723  11.1402  11.8075  11.9556  12.1727  12.1787  12.4847  12.7982
    12.8779  13.2323  13.2604  13.3489  13.3752  13.5085  13.6181  13.6424
    13.7970  13.8987  13.9013  13.9016  14.0554  14.1363  14.1853  14.4478
    14.5282  14.8314

          k =-0.0022 0.6635 0.4045 ( 50423 PWs)   bands (ev):

   -63.6502 -63.6502 -63.6379 -63.6379 -63.6135 -63.6135 -63.6081 -63.6081
   -28.1271 -28.1271 -28.1150 -28.1150 -28.0996 -28.0996 -28.0075 -28.0075
   -27.8846 -27.8846 -27.8557 -27.8557 -27.8310 -27.8310 -27.7920 -27.7920
   -27.7254 -27.7253 -27.7024 -27.7024 -27.5867 -27.5867 -27.5543 -27.5543
    -3.7304  -3.4922  -2.8912  -2.7362  -2.6825  -2.4808  -2.3684  -2.2483
    -2.0955  -1.9956  -1.9592  -1.8992  -1.8124  -1.7639  -1.5882  -1.5358
     4.2535   4.5150   4.5842   4.6929   4.7949   4.9399   5.1647   5.2085
     5.2704   5.3604   5.5289   5.6048   5.6296   5.7523   5.8632   5.9945
     6.2002   6.2623   6.5115   6.5221   6.5930   6.6851   6.7016   6.8518
     6.9249   6.9443   7.0054   7.0455   7.1075   7.2913   7.5763   7.5969
     7.6091   7.6895   7.7289   7.9193   7.9403   8.1242   8.1588   8.2524
     8.2806   8.3446   8.8831   8.9059   9.2305   9.2426   9.3636   9.3777
     9.3998   9.7814   9.8461   9.8731   9.8932   9.8939  10.0236  10.6545
    10.8171  11.3322  11.8540  11.9621  12.1736  12.2184  12.5728  12.8170
    12.9575  13.2624  13.2926  13.3846  13.4184  13.4816  13.5689  13.6509
    13.6694  13.8067  13.8213  14.0477  14.2513  14.2726  14.4098  14.5405
    14.6316  14.7372

          k =-0.0043 0.6635 0.8090 ( 50438 PWs)   bands (ev):

   -63.6500 -63.6500 -63.6377 -63.6377 -63.6137 -63.6137 -63.6083 -63.6083
   -28.1303 -28.1303 -28.1198 -28.1198 -28.0915 -28.0915 -28.0091 -28.0091
   -27.8841 -27.8841 -27.8550 -27.8550 -27.8269 -27.8269 -27.7923 -27.7923
   -27.7244 -27.7244 -27.6979 -27.6979 -27.5874 -27.5874 -27.5628 -27.5628
    -3.4261  -3.2853  -2.6974  -2.6698  -2.6266  -2.6017  -2.4259  -2.3209
    -2.3044  -2.2392  -2.0885  -2.0532  -1.8393  -1.7790  -1.6465  -1.5540
     4.4484   4.4913   4.5041   4.7887   4.9022   4.9112   5.1955   5.2325
     5.3047   5.3650   5.4960   5.5587   5.7142   5.7691   6.1153   6.1826
     6.1837   6.2463   6.3178   6.3690   6.5425   6.6511   6.6616   6.7926
     6.7928   6.8599   7.0126   7.0221   7.1504   7.2246   7.4767   7.7111
     7.7461   7.8070   7.8898   7.8982   8.1607   8.1747   8.3504   8.3509
     8.3656   8.6432   8.8064   8.8813   8.9003   9.1180   9.2885   9.3719
     9.4674   9.5799   9.6905   9.7939   9.8791   9.9625  10.0909  10.3138
    10.7924  11.3332  11.7982  11.8803  12.0054  12.2379  12.5737  12.8135
    13.1785  13.2263  13.3840  13.4981  13.5324  13.5533  13.5985  13.6207
    13.7367  13.7589  13.8970  14.0220  14.2601  14.2703  14.3889  14.4820
    14.6949  14.7358

          k = 0.0065 0.6635-1.2135 ( 50400 PWs)   bands (ev):

   -63.6499 -63.6499 -63.6377 -63.6377 -63.6137 -63.6137 -63.6084 -63.6084
   -28.1297 -28.1297 -28.1244 -28.1244 -28.0870 -28.0870 -28.0104 -28.0104
   -27.8838 -27.8838 -27.8545 -27.8545 -27.8251 -27.8251 -27.7924 -27.7924
   -27.7237 -27.7237 -27.6954 -27.6954 -27.5879 -27.5879 -27.5673 -27.5672
    -3.0542  -3.0023  -2.9941  -2.7973  -2.6086  -2.4688  -2.4491  -2.4371
    -2.3554  -2.3549  -2.2410  -2.0251  -1.8611  -1.7879  -1.6807  -1.5751
     4.3457   4.5419   4.8236   4.8502   4.8594   4.9609   5.0176   5.0215
     5.0929   5.5625   5.6410   5.7373   5.8072   5.9465   6.1008   6.1619
     6.2568   6.2791   6.3333   6.3838   6.4646   6.4947   6.5648   6.6057
     6.6302   6.8563   6.8686   7.0038   7.2635   7.3669   7.4352   7.7731
     7.8014   7.8215   7.8253   8.0309   8.2675   8.2720   8.4356   8.4674
     8.5784   8.5797   8.5798   8.5998   8.9758   9.0986   9.1870   9.4580
     9.5533   9.5938   9.6717   9.8690   9.9140  10.0130  10.0697  10.1269
    10.7782  11.2721  11.6588  11.8277  11.8753  12.1808  12.5347  12.7616
    13.1742  13.2073  13.4439  13.5039  13.5856  13.6164  13.6815  13.7120
    13.7254  13.7875  13.8897  14.0970  14.1451  14.3405  14.3887  14.4063
    14.6332  14.8601

          k = 0.0000-0.9952 0.0000 ( 50434 PWs)   bands (ev):

   -63.6447 -63.6447 -63.6447 -63.6447 -63.6101 -63.6101 -63.6101 -63.6101
   -28.1065 -28.1065 -28.1065 -28.1065 -28.0631 -28.0631 -28.0630 -28.0630
   -27.8709 -27.8709 -27.8709 -27.8709 -27.8199 -27.8199 -27.8199 -27.8199
   -27.7174 -27.7174 -27.7174 -27.7174 -27.5632 -27.5631 -27.5631 -27.5631
    -3.4488  -3.4488  -3.1772  -3.1771  -2.6092  -2.6092  -2.3152  -2.3151
    -1.9159  -1.9158  -1.7992  -1.7991  -1.6920  -1.6920  -1.6507  -1.6507
     4.5239   4.5239   4.7622   4.7622   4.7997   4.7997   5.2126   5.2126
     5.2803   5.2803   5.6343   5.6343   5.9023   5.9023   5.9422   5.9423
     6.0508   6.0508   6.2265   6.2265   6.9099   6.9099   6.9421   6.9421
     6.9692   6.9692   7.0253   7.0253   7.2319   7.2320   7.4481   7.4481
     7.5596   7.5596   7.7318   7.7318   7.9479   7.9479   8.1312   8.1312
     8.1485   8.1485   8.3449   8.3449   9.3355   9.3355   9.3826   9.3826
     9.5613   9.5613   9.8730   9.8730  10.1721  10.1721  10.5329  10.5329
    11.1299  11.1299  11.6250  11.6250  12.1570  12.1570  12.5370  12.5370
    12.9205  12.9205  13.4146  13.4146  13.6230  13.6230  13.7323  13.7323
    13.8577  13.8577  13.9427  13.9427  14.1156  14.1156  14.2209  14.2209
    14.6580  14.6580

          k =-0.0022-0.9952 0.4045 ( 50386 PWs)   bands (ev):

   -63.6447 -63.6447 -63.6446 -63.6446 -63.6102 -63.6102 -63.6102 -63.6102
   -28.1061 -28.1061 -28.1061 -28.1061 -28.0640 -28.0640 -28.0640 -28.0640
   -27.8707 -27.8707 -27.8706 -27.8706 -27.8187 -27.8187 -27.8187 -27.8187
   -27.7163 -27.7163 -27.7163 -27.7163 -27.5653 -27.5653 -27.5653 -27.5653
    -3.3500  -3.3500  -3.1324  -3.1324  -2.5432  -2.5432  -2.3465  -2.3464
    -2.0404  -2.0404  -1.9036  -1.9035  -1.7077  -1.7076  -1.6645  -1.6645
     4.6598   4.6598   4.6949   4.6950   4.9706   4.9706   5.2738   5.2738
     5.3192   5.3192   5.3575   5.3576   5.9019   5.9020   5.9529   5.9529
     6.2316   6.2316   6.3332   6.3332   6.8036   6.8036   6.8099   6.8099
     6.8912   6.8912   7.0943   7.0943   7.1299   7.1300   7.2834   7.2834
     7.5285   7.5285   7.6746   7.6746   7.9421   7.9422   8.0269   8.0269
     8.5964   8.5964   8.6463   8.6464   9.3298   9.3298   9.4079   9.4079
     9.5732   9.5732   9.6770   9.6770  10.0007  10.0007  10.2895  10.2895
    11.2456  11.2456  11.7515  11.7515  12.1930  12.1930  12.5467  12.5467
    13.0158  13.0158  13.5009  13.5009  13.5848  13.5848  13.6583  13.6583
    13.7295  13.7295  13.8030  13.8030  14.1611  14.1611  14.6012  14.6012
    14.7367  14.7369

          k =-0.0043-0.9952 0.8090 ( 50418 PWs)   bands (ev):

   -63.6445 -63.6445 -63.6445 -63.6445 -63.6104 -63.6104 -63.6104 -63.6104
   -28.1040 -28.1040 -28.1040 -28.1040 -28.0674 -28.0674 -28.0674 -28.0674
   -27.8700 -27.8700 -27.8700 -27.8700 -27.8162 -27.8162 -27.8162 -27.8162
   -27.7136 -27.7136 -27.7136 -27.7136 -27.5699 -27.5699 -27.5699 -27.5699
    -3.0736  -3.0736  -2.9889  -2.9889  -2.4255  -2.4254  -2.4042  -2.4041
    -2.3318  -2.3318  -2.1801  -2.1800  -1.7386  -1.7385  -1.7023  -1.7023
     4.7992   4.7993   4.9401   4.9401   5.0254   5.0254   5.2348   5.2348
     5.4249   5.4249   5.4902   5.4903   5.7142   5.7142   5.9337   5.9337
     6.2493   6.2493   6.4550   6.4550   6.5120   6.5121   6.5375   6.5375
     6.7780   6.7780   6.8285   6.8285   7.0735   7.0735   7.2411   7.2411
     7.7981   7.7981   7.8790   7.8790   8.1037   8.1037   8.2414   8.2414
     8.6870   8.6870   8.8539   8.8539   9.2157   9.2157   9.2916   9.2916
     9.5801   9.5801   9.7789   9.7790   9.8769   9.8769   9.8852   9.8852
    11.2995  11.2995  11.8268  11.8268  12.1318  12.1318  12.4595  12.4595
    13.1449  13.1449  13.5272  13.5272  13.6053  13.6053  13.6072  13.6072
    13.7226  13.7226  13.8088  13.8088  14.1679  14.1679  14.4706  14.4706
    14.7004  14.7004

          k = 0.0065-0.9952-1.2135 ( 50316 PWs)   bands (ev):

   -63.6444 -63.6444 -63.6444 -63.6444 -63.6105 -63.6105 -63.6105 -63.6105
   -28.1021 -28.1021 -28.1021 -28.1021 -28.0702 -28.0702 -28.0701 -28.0701
   -27.8696 -27.8696 -27.8696 -27.8696 -27.8149 -27.8149 -27.8149 -27.8149
   -27.7120 -27.7120 -27.7120 -27.7120 -27.5724 -27.5724 -27.5724 -27.5724
    -2.8234  -2.8234  -2.7157  -2.7157  -2.6627  -2.6626  -2.5696  -2.5696
    -2.3430  -2.3430  -2.3243  -2.3243  -1.7534  -1.7534  -1.7293  -1.7293
     4.8969   4.8969   5.1319   5.1319   5.1373   5.1373   5.1606   5.1606
     5.2870   5.2870   5.5350   5.5350   6.0052   6.0052   6.0145   6.0145
     6.0213   6.0213   6.2003   6.2003   6.2592   6.2592   6.4632   6.4632
     6.7668   6.7668   6.8118   6.8118   7.1540   7.1540   7.3300   7.3300
     7.8862   7.8863   8.0191   8.0191   8.0316   8.0316   8.5611   8.5611
     8.5858   8.5858   8.6988   8.6988   9.2771   9.2771   9.3036   9.3036
     9.6027   9.6027   9.6197   9.6197   9.8329   9.8329  10.0136  10.0136
    11.2495  11.2496  11.7715  11.7715  12.0524  12.0524  12.3699  12.3700
    13.1263  13.1263  13.6326  13.6326  13.6475  13.6475  13.6915  13.6915
    13.7339  13.7339  13.7413  13.7413  14.2594  14.2594  14.3398  14.3398
    14.4274  14.4274

          k = 0.3299 0.0000 0.1374 ( 50473 PWs)   bands (ev):

   -63.6554 -63.6554 -63.6240 -63.6240 -63.6240 -63.6239 -63.6064 -63.6064
   -28.1586 -28.1586 -28.1586 -28.1586 -28.1101 -28.1101 -27.9444 -27.9444
   -27.9000 -27.9000 -27.8357 -27.8357 -27.8357 -27.8357 -27.7445 -27.7445
   -27.7396 -27.7396 -27.6528 -27.6528 -27.6528 -27.6528 -27.5455 -27.5455
    -4.1227  -3.9890  -2.7501  -2.6224  -2.2935  -2.2934  -2.1172  -2.1172
    -2.0542  -2.0036  -1.8450  -1.7652  -1.7651  -1.7629  -1.7030  -1.7030
     3.9608   3.9637   4.1882   4.7225   4.8053   4.8053   4.8248   4.8249
     5.2885   5.2885   5.4652   5.4652   5.5372   5.7114   5.9474   5.9696
     6.1345   6.1345   6.1677   6.1677   6.8442   6.8923   6.9613   6.9771
     7.0534   7.0534   7.2124   7.2124   7.3482   7.3482   7.4037   7.5488
     7.5629   7.5629   7.7015   8.0748   8.1567   8.3922   8.3922   8.5774
     8.5774   8.8305   9.1204   9.2261   9.2261   9.2456   9.2540   9.3082
     9.4834   9.4834   9.9845  10.1760  10.4605  10.4720  10.5516  10.6350
    10.6519  10.9083  11.5890  11.5953  12.7568  12.8256  13.0468  13.0468
    13.0933  13.0933  13.1257  13.1257  13.2581  13.2582  13.4182  13.4359
    13.7048  13.7048  13.9841  14.2957  14.3237  14.3237  14.3855  14.5421
    14.7093  14.7324

          k = 0.3277 0.0000 0.5419 ( 50437 PWs)   bands (ev):

   -63.6552 -63.6552 -63.6240 -63.6240 -63.6240 -63.6239 -63.6066 -63.6066
   -28.1618 -28.1618 -28.1618 -28.1618 -28.1036 -28.1036 -27.9435 -27.9435
   -27.9000 -27.9000 -27.8347 -27.8347 -27.8347 -27.8347 -27.7454 -27.7454
   -27.7405 -27.7405 -27.6503 -27.6503 -27.6503 -27.6502 -27.5518 -27.5518
    -3.9662  -3.9463  -2.7146  -2.6650  -2.3218  -2.3217  -2.1776  -2.1745
    -2.1744  -2.0702  -1.9895  -1.7463  -1.7144  -1.7143  -1.6483  -1.6483
     3.9821   4.1014   4.4700   4.4700   4.5135   4.5135   4.5423   4.7194
     5.2856   5.2856   5.2921   5.5392   5.6587   5.6587   6.2389   6.2562
     6.3670   6.3670   6.4194   6.4194   6.8817   6.8994   7.0208   7.0208
     7.0428   7.0645   7.1769   7.1769   7.2478   7.3115   7.4275   7.4505
     7.4505   7.6312   7.6312   8.0850   8.4236   8.4236   8.5989   8.5989
     8.6165   8.6980   8.9611   9.1015   9.1450   9.3262   9.3262   9.3311
     9.4410   9.4410   9.7555  10.0923  10.1013  10.1304  10.6213  10.7147
    10.8036  10.8309  11.4044  11.4510  12.7643  13.0122  13.0122  13.0439
    13.0439  13.0600  13.1647  13.1647  13.3767  13.4389  13.4967  13.4967
    13.8568  13.8568  13.9079  14.2652  14.2825  14.2825  14.5802  14.6354
    14.7109  14.8310

          k = 0.3256 0.0000 0.9464 ( 50477 PWs)   bands (ev):

   -63.6550 -63.6550 -63.6240 -63.6240 -63.6240 -63.6239 -63.6068 -63.6068
   -28.1682 -28.1682 -28.1682 -28.1682 -28.0901 -28.0901 -27.9417 -27.9417
   -27.9002 -27.9002 -27.8329 -27.8329 -27.8329 -27.8329 -27.7473 -27.7472
   -27.7424 -27.7424 -27.6452 -27.6452 -27.6452 -27.6451 -27.5646 -27.5646
    -3.7067  -3.6156  -2.9281  -2.6980  -2.4042  -2.4036  -2.3643  -2.3643
    -2.2676  -2.2676  -1.9579  -1.7937  -1.6007  -1.6007  -1.5849  -1.5849
     4.0617   4.0617   4.0726   4.0726   4.2629   4.3500   4.6107   4.8089
     5.4716   5.4716   5.5028   5.7251   5.7251   5.7684   6.1261   6.4412
     6.5035   6.5035   6.6855   6.6855   6.7239   6.9534   6.9579   6.9875
     6.9875   7.0249   7.2160   7.2321   7.2321   7.2429   7.6105   7.7507
     7.7507   7.7842   7.7842   8.1870   8.2819   8.2819   8.3305   8.5700
     8.7947   8.7947   8.9721   8.9844   9.0063   9.0954   9.3525   9.3525
     9.6556   9.6556   9.6996   9.7285   9.7694   9.8459  10.4228  10.5912
    10.6698  10.7468  11.1539  11.2353  12.9172  12.9172  12.9600  12.9600
    13.0141  13.0971  13.4578  13.4578  13.5596  13.5715  13.6110  13.8489
    13.8489  13.8695  13.9287  13.9287  14.3753  14.3753  14.6094  14.6467
    14.8892  15.0173

          k = 0.3363 0.0000-1.0761 ( 50486 PWs)   bands (ev):

   -63.6548 -63.6548 -63.6240 -63.6240 -63.6240 -63.6239 -63.6070 -63.6070
   -28.1713 -28.1713 -28.1713 -28.1713 -28.0830 -28.0830 -27.9407 -27.9407
   -27.9005 -27.9005 -27.8321 -27.8320 -27.8320 -27.8320 -27.7482 -27.7482
   -27.7434 -27.7433 -27.6426 -27.6426 -27.6426 -27.6426 -27.5712 -27.5712
    -3.3505  -3.3322  -3.1505  -3.0487  -2.5466  -2.4460  -2.3856  -2.3856
    -2.3012  -2.3011  -1.9090  -1.8316  -1.5845  -1.5845  -1.5245  -1.5245
     3.8717   3.8717   3.9267   3.9267   4.4091   4.5912   4.6029   4.7509
     5.5328   5.5328   5.5862   5.7659   5.9230   5.9230   6.3766   6.3766
     6.4089   6.4359   6.5785   6.5785   6.6307   6.8761   6.9855   7.0043
     7.1353   7.1353   7.2757   7.2757   7.3105   7.3476   7.6616   7.6616
     7.8083   7.8160   8.0469   8.2201   8.2201   8.2640   8.2640   8.4832
     8.6015   8.6015   8.8578   8.9251   9.0561   9.2777   9.5160   9.5160
     9.5752   9.6181   9.7149   9.8431   9.8431   9.9437  10.0618  10.3832
    10.6265  10.6657  11.0255  11.0722  12.8522  12.8522  12.8871  12.8871
    13.2696  13.3033  13.4011  13.6089  13.6850  13.6850  13.7124  13.8040
    13.8069  13.8069  14.0485  14.0485  14.4335  14.4521  14.4521  14.6266
    15.0058  15.1010

          k = 0.3342 0.0000-0.6716 ( 50443 PWs)   bands (ev):

   -63.6550 -63.6550 -63.6240 -63.6240 -63.6240 -63.6239 -63.6068 -63.6068
   -28.1682 -28.1682 -28.1682 -28.1682 -28.0901 -28.0901 -27.9417 -27.9417
   -27.9002 -27.9002 -27.8329 -27.8329 -27.8329 -27.8329 -27.7473 -27.7472
   -27.7424 -27.7424 -27.6452 -27.6452 -27.6452 -27.6451 -27.5646 -27.5646
    -3.7768  -3.5074  -2.9304  -2.7530  -2.5227  -2.3661  -2.3661  -2.2886
    -2.2648  -2.2648  -1.8678  -1.8579  -1.6225  -1.6225  -1.5640  -1.5640
     4.0221   4.0221   4.0419   4.1045   4.1045   4.5600   4.5882   4.9536
     5.4406   5.4790   5.4790   5.7191   5.7749   5.7749   6.1768   6.3645
     6.4943   6.4944   6.5998   6.5998   6.7617   6.9101   6.9327   6.9786
     7.0414   7.0414   7.1982   7.1982   7.2118   7.2488   7.7101   7.7102
     7.7917   7.7917   7.9870   8.0066   8.3630   8.3630   8.3848   8.4049
     8.6706   8.8082   8.8082   8.9065   9.0496   9.3290   9.3290   9.5026
     9.6433   9.6434   9.7026   9.7197   9.7782  10.0547  10.2453  10.4687
    10.7054  10.7099  11.1394  11.2200  12.9243  12.9243  12.9500  12.9500
    13.0680  13.1329  13.4892  13.4892  13.5102  13.6423  13.6742  13.6742
    13.6882  13.8655  14.0121  14.0122  14.4344  14.4344  14.4344  14.7908
    14.8845  14.9829

          k = 0.3320 0.0000-0.2671 ( 50454 PWs)   bands (ev):

   -63.6552 -63.6552 -63.6240 -63.6240 -63.6240 -63.6239 -63.6066 -63.6066
   -28.1618 -28.1618 -28.1618 -28.1618 -28.1036 -28.1036 -27.9435 -27.9435
   -27.9000 -27.9000 -27.8347 -27.8347 -27.8347 -27.8347 -27.7454 -27.7454
   -27.7405 -27.7405 -27.6503 -27.6503 -27.6503 -27.6502 -27.5518 -27.5518
    -4.0553  -3.8309  -2.8211  -2.6083  -2.3197  -2.3196  -2.2462  -2.1788
    -2.1788  -1.9810  -1.9114  -1.8180  -1.6950  -1.6950  -1.6655  -1.6655
     3.8907   4.1144   4.4343   4.4517   4.4517   4.5256   4.5256   4.9953
     5.4047   5.4183   5.4183   5.4232   5.4853   5.4853   6.1868   6.2664
     6.3962   6.3962   6.4841   6.4841   6.8616   6.9199   6.9677   6.9677
     7.0371   7.0417   7.0669   7.2319   7.2319   7.2459   7.3268   7.3268
     7.7198   7.7198   7.7606   7.9827   8.3015   8.3092   8.3092   8.7856
     8.7856   8.8297   9.0377   9.1857   9.2022   9.2022   9.2096   9.3057
     9.4726   9.4726   9.9376  10.0802  10.0937  10.1428  10.4825  10.7504
    10.7540  10.7615  11.4362  11.4445  12.8297  12.9404  13.0002  13.0002
    13.0462  13.0462  13.1833  13.1833  13.3553  13.4758  13.5683  13.5683
    13.7189  13.7189  13.8267  14.2820  14.3616  14.3616  14.5193  14.7099
    14.7123  14.7465

          k = 0.3299 0.3317 0.1374 ( 50460 PWs)   bands (ev):

   -63.6541 -63.6541 -63.6308 -63.6308 -63.6181 -63.6181 -63.6068 -63.6068
   -28.1483 -28.1483 -28.1467 -28.1467 -28.1075 -28.1075 -27.9623 -27.9623
   -27.8954 -27.8954 -27.8432 -27.8432 -27.8343 -27.8343 -27.7617 -27.7617
   -27.7323 -27.7323 -27.6831 -27.6831 -27.6182 -27.6182 -27.5460 -27.5460
    -4.0357  -3.9020  -2.7171  -2.5842  -2.4856  -2.4172  -2.2218  -2.1593
    -2.0201  -1.9747  -1.8810  -1.8756  -1.8306  -1.7590  -1.5656  -1.5547
     4.0532   4.0666   4.2881   4.8027   4.8090   4.8638   4.9589   4.9766
     5.0740   5.2279   5.4867   5.6445   5.6467   5.7278   5.9677   5.9718
     5.9780   6.2295   6.3869   6.4280   6.6965   6.7235   6.7798   6.8195
     6.8466   6.8520   6.9850   7.2434   7.5298   7.5310   7.5529   7.5687
     7.6931   7.7256   7.7258   8.0183   8.0656   8.0777   8.1911   8.3151
     8.6266   8.7026   8.8726   9.1017   9.2801   9.3389   9.5812   9.6593
     9.6601   9.6919   9.7133   9.7366   9.9195   9.9686  10.5264  10.6667
    10.8121  11.1453  11.7615  11.7989  12.5918  12.6755  12.8400  12.9454
    12.9658  12.9967  13.1868  13.2727  13.3072  13.4084  13.4533  13.4573
    13.7162  13.7952  13.8969  13.9702  14.2779  14.2978  14.4444  14.4551
    14.6129  14.6667

          k = 0.3277 0.3317 0.5419 ( 50430 PWs)   bands (ev):

   -63.6539 -63.6539 -63.6307 -63.6307 -63.6181 -63.6181 -63.6069 -63.6069
   -28.1529 -28.1529 -28.1481 -28.1481 -28.1017 -28.1017 -27.9619 -27.9619
   -27.8953 -27.8953 -27.8427 -27.8427 -27.8325 -27.8325 -27.7628 -27.7628
   -27.7326 -27.7326 -27.6804 -27.6804 -27.6167 -27.6167 -27.5516 -27.5516
    -3.8801  -3.8631  -2.6730  -2.6273  -2.5069  -2.3738  -2.2715  -2.1639
    -2.1495  -2.0583  -1.9518  -1.8943  -1.8653  -1.7423  -1.5478  -1.5211
     4.0769   4.2126   4.4358   4.4448   4.6601   4.7809   4.8089   4.9127
     5.0746   5.2766   5.2996   5.4955   5.7851   5.8933   6.0571   6.1844
     6.2146   6.2669   6.5495   6.7278   6.7278   6.7885   6.7987   6.8039
     6.8519   6.8862   6.9793   7.1419   7.4160   7.4723   7.5395   7.5507
     7.6381   7.6761   7.8753   8.0155   8.1379   8.2761   8.3234   8.4229
     8.7028   8.7059   8.7847   8.9520   9.2916   9.3282   9.3460   9.4019
     9.4472   9.5020   9.6570   9.6832   9.9855  10.2288  10.4084  10.6788
    10.8333  10.9117  11.7183  11.7453  12.5663  12.6710  12.9305  12.9489
    13.0007  13.1521  13.2599  13.2829  13.3074  13.3647  13.3924  13.6844
    13.7457  13.7527  14.1062  14.1244  14.2693  14.3074  14.4687  14.5843
    14.6773  14.6800

          k = 0.3256 0.3317 0.9464 ( 50438 PWs)   bands (ev):

   -63.6537 -63.6537 -63.6307 -63.6307 -63.6182 -63.6182 -63.6072 -63.6072
   -28.1588 -28.1588 -28.1539 -28.1539 -28.0896 -28.0896 -27.9614 -27.9614
   -27.8950 -27.8950 -27.8417 -27.8417 -27.8293 -27.8293 -27.7649 -27.7649
   -27.7332 -27.7331 -27.6748 -27.6748 -27.6140 -27.6140 -27.5632 -27.5632
    -3.6304  -3.5340  -2.8685  -2.6406  -2.4962  -2.3909  -2.3897  -2.3670
    -2.2805  -2.2766  -1.9310  -1.8860  -1.7863  -1.7738  -1.5494  -1.4838
     4.0530   4.1165   4.3650   4.4314   4.4515   4.4857   4.7094   4.8942
     5.1825   5.4550   5.5612   5.6815   5.8715   5.8908   6.0942   6.4210
     6.4628   6.4700   6.5674   6.6045   6.6228   6.7026   6.8070   6.8302
     6.8816   6.9184   7.1129   7.2012   7.2471   7.3865   7.6727   7.6769
     7.7631   7.7977   8.1428   8.2040   8.2349   8.3442   8.4561   8.4876
     8.6780   8.6958   8.7533   8.7672   8.7959   8.8729   9.2604   9.2870
     9.4909   9.5993   9.6308   9.6809  10.0440  10.2600  10.3533  10.4910
    10.6162  10.7546  11.4846  11.5096  12.5169  12.5949  12.9764  12.9906
    13.1127  13.2013  13.4031  13.4771  13.4974  13.5454  13.5510  13.6546
    13.7432  13.8908  14.0241  14.0637  14.4807  14.4846  14.4894  14.5218
    14.6776  14.7885

          k = 0.3363 0.3317-1.0761 ( 50469 PWs)   bands (ev):

   -63.6536 -63.6536 -63.6306 -63.6306 -63.6182 -63.6182 -63.6073 -63.6073
   -28.1604 -28.1604 -28.1580 -28.1580 -28.0831 -28.0831 -27.9613 -27.9613
   -27.8949 -27.8949 -27.8412 -27.8412 -27.8279 -27.8279 -27.7659 -27.7659
   -27.7334 -27.7334 -27.6718 -27.6718 -27.6127 -27.6127 -27.5691 -27.5691
    -3.2786  -3.2649  -3.0758  -2.9765  -2.5327  -2.4394  -2.4385  -2.3874
    -2.3439  -2.3209  -1.8882  -1.8213  -1.8144  -1.7466  -1.5446  -1.5011
     3.9435   3.9883   4.2471   4.3027   4.5244   4.6913   4.6933   4.8276
     5.2723   5.5008   5.6468   5.8021   5.9184   6.0862   6.3324   6.3904
     6.3972   6.4537   6.4712   6.4968   6.5930   6.6636   6.7518   6.8018
     6.9056   6.9616   7.1475   7.1803   7.3808   7.5375   7.5590   7.6380
     8.0211   8.0549   8.0709   8.1277   8.1456   8.3815   8.4040   8.4596
     8.6083   8.6602   8.6724   8.7342   8.7418   8.8325   9.2205   9.4714
     9.4869   9.6825   9.7674   9.8455   9.9372  10.1191  10.2292  10.3358
    10.6867  10.6990  11.2898  11.3049  12.4470  12.5257  12.9428  12.9579
    13.3131  13.3392  13.4200  13.4783  13.5950  13.6352  13.6763  13.7642
    13.7652  13.7841  14.0881  14.0933  14.2949  14.4521  14.6412  14.6904
    14.7667  14.8637

          k = 0.3342 0.3317-0.6716 ( 50433 PWs)   bands (ev):

   -63.6537 -63.6537 -63.6307 -63.6307 -63.6182 -63.6182 -63.6072 -63.6072
   -28.1588 -28.1588 -28.1539 -28.1539 -28.0896 -28.0896 -27.9614 -27.9614
   -27.8950 -27.8950 -27.8417 -27.8417 -27.8293 -27.8293 -27.7649 -27.7649
   -27.7332 -27.7332 -27.6748 -27.6748 -27.6140 -27.6140 -27.5632 -27.5632
    -3.6977  -3.4278  -2.8761  -2.6924  -2.5009  -2.4501  -2.4386  -2.2867
    -2.2797  -2.2499  -1.8536  -1.8428  -1.8405  -1.8147  -1.5267  -1.5040
     4.0563   4.1057   4.1530   4.3898   4.5232   4.6743   4.6868   5.0038
     5.2404   5.3949   5.4798   5.6788   5.9171   6.0388   6.1788   6.3065
     6.3269   6.3521   6.5044   6.5072   6.6315   6.6951   6.8320   6.8982
     6.9443   6.9628   7.1564   7.1937   7.2583   7.2974   7.6592   7.6901
     7.8920   8.0231   8.0318   8.0937   8.2900   8.3179   8.4053   8.4549
     8.5060   8.6037   8.7701   8.7879   8.9303   9.0078   9.2727   9.3213
     9.3772   9.5382   9.7161   9.7456  10.1278  10.2625  10.2966  10.4451
    10.5284  10.8051  11.4653  11.4874  12.5140  12.5870  12.9643  13.0168
    13.1338  13.2322  13.3940  13.4492  13.5046  13.5668  13.6064  13.6783
    13.8349  13.8366  13.8720  14.1006  14.3360  14.4683  14.5700  14.6573
    14.6996  14.7116

          k = 0.3320 0.3317-0.2671 ( 50428 PWs)   bands (ev):

   -63.6539 -63.6539 -63.6307 -63.6307 -63.6181 -63.6181 -63.6069 -63.6069
   -28.1529 -28.1529 -28.1481 -28.1481 -28.1017 -28.1017 -27.9619 -27.9619
   -27.8953 -27.8952 -27.8428 -27.8427 -27.8325 -27.8325 -27.7628 -27.7628
   -27.7326 -27.7326 -27.6804 -27.6804 -27.6167 -27.6167 -27.5516 -27.5516
    -3.9709  -3.7447  -2.7862  -2.5648  -2.5134  -2.3631  -2.2689  -2.2112
    -2.1703  -1.9645  -1.8969  -1.8960  -1.8626  -1.8039  -1.5514  -1.5180
     4.0056   4.2045   4.4309   4.4397   4.5281   4.7963   4.9395   5.0891
     5.1772   5.2036   5.3607   5.4125   5.7844   5.8283   6.1011   6.2000
     6.2014   6.2331   6.5736   6.6374   6.6968   6.7721   6.7894   6.8146
     6.8512   6.8748   6.9284   7.2274   7.3765   7.4328   7.4820   7.6108
     7.7511   7.7864   7.8215   7.9829   8.1025   8.1584   8.3210   8.5166
     8.6234   8.6303   8.9372   9.0965   9.1551   9.2587   9.3745   9.3960
     9.4832   9.6080   9.6169   9.6302  10.1867  10.2084  10.5162  10.5413
    10.5918  11.0481  11.7072  11.7373  12.5837  12.6495  12.8784  13.0049
    13.0660  13.0775  13.2151  13.2579  13.3018  13.3752  13.5011  13.5141
    13.8750  13.8775  13.8878  14.0146  14.3005  14.4159  14.4245  14.4446
    14.6222  14.7919

          k = 0.3299 0.6635 0.1374 ( 50439 PWs)   bands (ev):

   -63.6504 -63.6504 -63.6379 -63.6379 -63.6135 -63.6135 -63.6080 -63.6080
   -28.1238 -28.1238 -28.1143 -28.1143 -28.1033 -28.1033 -28.0072 -28.0072
   -27.8849 -27.8849 -27.8560 -27.8559 -27.8331 -27.8331 -27.7917 -27.7917
   -27.7257 -27.7257 -27.7044 -27.7044 -27.5865 -27.5865 -27.5503 -27.5503
    -3.7842  -3.6512  -2.9290  -2.8127  -2.6282  -2.4859  -2.3713  -2.2520
    -1.9468  -1.9004  -1.8940  -1.8653  -1.7732  -1.7415  -1.5603  -1.5440
     4.2945   4.3376   4.5750   4.7379   4.8948   5.0291   5.0963   5.0975
     5.2862   5.3382   5.3606   5.4568   5.6784   5.8544   5.9792   5.9941
     6.0893   6.2118   6.4694   6.5727   6.5816   6.5898   6.8671   6.8747
     6.8948   6.9145   7.0311   7.1987   7.2321   7.3753   7.4781   7.5652
     7.5797   7.6221   7.7582   7.7648   7.8887   7.9698   8.0196   8.0678
     8.5671   8.6918   8.7377   8.8765   8.9740   9.1247   9.4354   9.4899
     9.5505   9.6838   9.7829   9.8259   9.9206  10.0197  10.5226  10.8134
    10.8575  11.0774  11.8891  12.0242  12.0711  12.1418  12.5384  12.6838
    13.0141  13.2548  13.2577  13.2959  13.4408  13.4903  13.6034  13.6279
    13.7404  13.8640  13.9140  13.9387  14.0528  14.1010  14.2458  14.4384
    14.6416  14.8049

          k = 0.3277 0.6635 0.5419 ( 50441 PWs)   bands (ev):

   -63.6502 -63.6502 -63.6379 -63.6379 -63.6135 -63.6135 -63.6081 -63.6081
   -28.1271 -28.1271 -28.1150 -28.1150 -28.0996 -28.0996 -28.0075 -28.0075
   -27.8846 -27.8846 -27.8557 -27.8557 -27.8310 -27.8310 -27.7920 -27.7920
   -27.7254 -27.7253 -27.7024 -27.7024 -27.5867 -27.5867 -27.5543 -27.5543
    -3.6314  -3.6246  -2.8551  -2.7899  -2.5676  -2.5274  -2.3417  -2.2542
    -2.0686  -2.0341  -1.9746  -1.9240  -1.8372  -1.7285  -1.5928  -1.5306
     4.3292   4.5257   4.6219   4.6643   4.8665   4.9380   4.9974   5.0856
     5.2134   5.4176   5.5327   5.5946   5.6963   5.7076   5.9908   6.0280
     6.1576   6.2191   6.4278   6.5693   6.6093   6.6716   6.8071   6.8652
     6.8863   6.9124   6.9791   7.1309   7.1315   7.2366   7.4921   7.6567
     7.6766   7.7382   7.8341   7.8651   7.8667   8.0232   8.1732   8.1800
     8.3442   8.3613   8.9989   9.0629   9.1059   9.1777   9.3852   9.4097
     9.4716   9.5291   9.6976   9.7712   9.9142   9.9263  10.1872  10.6211
    11.0724  11.1415  11.9414  12.0154  12.1119  12.1696  12.6542  12.6998
    13.1175  13.1943  13.3320  13.3655  13.4120  13.4722  13.4908  13.5897
    13.6517  13.8242  13.8337  14.0676  14.1682  14.3306  14.3842  14.5377
    14.7148  14.8024

          k = 0.3256 0.6635 0.9464 ( 50420 PWs)   bands (ev):

   -63.6500 -63.6500 -63.6377 -63.6377 -63.6137 -63.6137 -63.6083 -63.6083
   -28.1303 -28.1303 -28.1198 -28.1198 -28.0915 -28.0915 -28.0091 -28.0091
   -27.8841 -27.8841 -27.8550 -27.8550 -27.8269 -27.8269 -27.7923 -27.7923
   -27.7244 -27.7244 -27.6979 -27.6979 -27.5874 -27.5874 -27.5628 -27.5628
    -3.4142  -3.2995  -2.7594  -2.7095  -2.5573  -2.4895  -2.3861  -2.3514
    -2.3449  -2.3009  -2.1209  -2.0126  -1.8501  -1.7642  -1.6367  -1.5605
     4.4238   4.5276   4.6403   4.6892   4.8810   4.9949   5.0359   5.0925
     5.2911   5.3895   5.4588   5.6808   5.7237   6.0012   6.0485   6.1998
     6.2076   6.2107   6.2501   6.5296   6.5470   6.5850   6.6275   6.6847
     6.7194   6.8647   7.0085   7.0673   7.2040   7.2438   7.4997   7.6141
     7.7523   7.8201   7.8551   7.9445   8.1743   8.2466   8.3019   8.3429
     8.4481   8.5677   8.7949   8.8894   8.9933   9.0349   9.2975   9.3608
     9.4413   9.6444   9.6535   9.6769   9.8492  10.0027  10.1312  10.2389
    11.0768  11.1697  11.8242  11.9747  12.0169  12.1227  12.6324  12.7684
    13.1923  13.3037  13.3970  13.4259  13.4574  13.4584  13.6133  13.6420
    13.6501  13.8206  13.8723  14.0235  14.1954  14.2891  14.4072  14.5384
    14.7009  14.9999

          k = 0.3363 0.6635-1.0761 ( 50455 PWs)   bands (ev):

   -63.6499 -63.6499 -63.6377 -63.6377 -63.6137 -63.6137 -63.6084 -63.6084
   -28.1297 -28.1297 -28.1244 -28.1244 -28.0870 -28.0870 -28.0104 -28.0104
   -27.8838 -27.8838 -27.8545 -27.8545 -27.8251 -27.8251 -27.7924 -27.7924
   -27.7237 -27.7237 -27.6954 -27.6954 -27.5879 -27.5879 -27.5673 -27.5672
    -3.0787  -3.0763  -2.8633  -2.7740  -2.5844  -2.5149  -2.4909  -2.4187
    -2.4128  -2.3645  -2.1752  -2.0700  -1.8271  -1.7914  -1.6513  -1.5989
     4.3880   4.4851   4.8366   4.8844   4.9240   4.9360   4.9367   5.0056
     5.1886   5.4065   5.7260   5.7314   5.7637   5.9780   6.1273   6.1532
     6.1635   6.2280   6.2436   6.3461   6.5286   6.5682   6.6604   6.6828
     6.7166   6.8130   6.8707   6.9688   7.2607   7.3106   7.5161   7.6995
     7.7831   7.7873   7.9791   8.0990   8.2227   8.2551   8.3846   8.4588
     8.5220   8.5557   8.5631   8.5749   9.0699   9.0803   9.3469   9.3732
     9.5157   9.6027   9.7099   9.7914   9.8165   9.8550  10.1485  10.1834
    10.9705  11.1979  11.7042  11.8148  11.9049  12.0783  12.6085  12.7221
    13.2221  13.2646  13.3648  13.4679  13.5596  13.6625  13.7144  13.7151
    13.7151  13.7249  13.9688  14.1148  14.1300  14.1865  14.5290  14.5427
    14.7062  14.8846

          k = 0.3342 0.6635-0.6716 ( 50432 PWs)   bands (ev):

   -63.6500 -63.6500 -63.6377 -63.6377 -63.6137 -63.6137 -63.6083 -63.6083
   -28.1303 -28.1303 -28.1198 -28.1198 -28.0915 -28.0915 -28.0091 -28.0091
   -27.8841 -27.8840 -27.8550 -27.8550 -27.8269 -27.8269 -27.7923 -27.7923
   -27.7244 -27.7244 -27.6979 -27.6979 -27.5874 -27.5874 -27.5628 -27.5628
    -3.4712  -3.2026  -2.7508  -2.7308  -2.5926  -2.5318  -2.4361  -2.3368
    -2.2945  -2.2502  -2.1593  -2.0062  -1.8106  -1.7885  -1.6052  -1.5895
     4.4501   4.4647   4.4981   4.8606   4.9407   4.9458   5.0880   5.1103
     5.3625   5.3749   5.4587   5.6031   5.6886   5.9413   6.0166   6.1214
     6.2122   6.2293   6.2981   6.4090   6.5693   6.6481   6.6498   6.6819
     6.8642   6.9084   7.0016   7.0279   7.1666   7.2118   7.6158   7.6334
     7.7118   7.8439   8.0031   8.0293   8.0301   8.0432   8.2882   8.3409
     8.4303   8.5861   8.8432   8.8526   8.8663   9.1677   9.1708   9.4144
     9.5036   9.5912   9.6986   9.7910   9.8031   9.9361  10.1674  10.2926
    10.9016  11.3197  11.8920  11.9092  11.9436  12.1488  12.6625  12.7567
    13.1274  13.1975  13.4263  13.4457  13.4576  13.5921  13.6043  13.6571
    13.7852  13.8149  13.8909  13.9580  14.1962  14.2854  14.5658  14.5864
    14.5875  14.8733

          k = 0.3320 0.6635-0.2671 ( 50423 PWs)   bands (ev):

   -63.6502 -63.6502 -63.6379 -63.6379 -63.6135 -63.6135 -63.6081 -63.6081
   -28.1271 -28.1271 -28.1150 -28.1150 -28.0996 -28.0996 -28.0075 -28.0075
   -27.8846 -27.8846 -27.8557 -27.8557 -27.8310 -27.8310 -27.7920 -27.7920
   -27.7254 -27.7253 -27.7024 -27.7024 -27.5867 -27.5867 -27.5543 -27.5543
    -3.7275  -3.4966  -2.9149  -2.6940  -2.6728  -2.4536  -2.4458  -2.2176
    -2.1207  -1.9694  -1.9393  -1.9225  -1.8276  -1.7580  -1.5650  -1.5548
     4.3357   4.4273   4.6060   4.6755   4.7497   4.9925   5.0668   5.2535
     5.2609   5.4528   5.5047   5.5760   5.5948   5.7650   6.0172   6.0694
     6.0939   6.2077   6.4275   6.4812   6.6156   6.6874   6.7661   6.8311
     6.8339   6.9632   6.9997   7.1410   7.1884   7.2258   7.4255   7.6540
     7.6822   7.7059   7.8576   7.9198   7.9650   7.9733   8.2014   8.2264
     8.2585   8.3723   8.9429   8.9439   9.1701   9.2187   9.3014   9.3255
     9.4234   9.7006   9.7319   9.8142   9.9277   9.9442  10.3800  10.4712
    10.8866  11.3210  11.9280  12.0403  12.1101  12.1212  12.5980  12.7950
    13.0685  13.1693  13.3435  13.3541  13.3823  13.4459  13.4549  13.6155
    13.7219  13.7536  13.9649  14.0173  14.2083  14.2370  14.3525  14.5798
    14.6497  14.7121

          k = 0.3299-0.9952 0.1374 ( 50462 PWs)   bands (ev):

   -63.6448 -63.6447 -63.6447 -63.6447 -63.6101 -63.6101 -63.6101 -63.6101
   -28.1065 -28.1065 -28.1065 -28.1065 -28.0631 -28.0631 -28.0630 -28.0630
   -27.8709 -27.8709 -27.8709 -27.8709 -27.8199 -27.8199 -27.8199 -27.8199
   -27.7174 -27.7174 -27.7174 -27.7174 -27.5631 -27.5631 -27.5631 -27.5631
    -3.3974  -3.3974  -3.2682  -3.2682  -2.5061  -2.5061  -2.3648  -2.3647
    -1.9026  -1.9026  -1.8507  -1.8506  -1.6674  -1.6673  -1.6522  -1.6522
     4.5619   4.5619   4.6562   4.6562   4.9636   4.9636   5.1538   5.1539
     5.3141   5.3141   5.4602   5.4603   5.9479   5.9479   6.0155   6.0155
     6.0617   6.0617   6.1713   6.1713   6.8530   6.8530   6.9035   6.9035
     7.0456   7.0456   7.0769   7.0769   7.2929   7.2929   7.4166   7.4166
     7.6280   7.6280   7.7087   7.7087   7.9151   7.9151   8.0317   8.0317
     8.2133   8.2133   8.3160   8.3160   9.4001   9.4001   9.4788   9.4788
     9.5125   9.5125   9.7142   9.7142  10.2788  10.2788  10.4493  10.4493
    11.2512  11.2512  11.4971  11.4971  12.2410  12.2410  12.4275  12.4275
    13.0574  13.0574  13.3385  13.3385  13.5973  13.5973  13.6118  13.6118
    13.9783  13.9783  14.0449  14.0449  14.0803  14.0803  14.1780  14.1780
    14.7923  14.7923

          k = 0.3277-0.9952 0.5419 ( 50464 PWs)   bands (ev):

   -63.6447 -63.6447 -63.6446 -63.6446 -63.6102 -63.6102 -63.6102 -63.6102
   -28.1061 -28.1061 -28.1061 -28.1061 -28.0640 -28.0640 -28.0640 -28.0640
   -27.8706 -27.8706 -27.8706 -27.8706 -27.8187 -27.8187 -27.8187 -27.8187
   -27.7163 -27.7163 -27.7163 -27.7163 -27.5653 -27.5653 -27.5653 -27.5653
    -3.2660  -3.2660  -3.2496  -3.2496  -2.4448  -2.4448  -2.3937  -2.3937
    -2.0083  -2.0083  -1.9683  -1.9683  -1.6863  -1.6863  -1.6721  -1.6720
     4.6187   4.6187   4.7409   4.7409   5.0450   5.0450   5.1348   5.1348
     5.3013   5.3014   5.4858   5.4858   5.8894   5.8894   5.8957   5.8957
     6.2716   6.2716   6.3134   6.3134   6.6902   6.6902   6.8748   6.8748
     6.9710   6.9710   7.0373   7.0373   7.0493   7.0494   7.3667   7.3668
     7.5328   7.5328   7.7905   7.7905   7.8826   7.8827   7.9885   7.9885
     8.5883   8.5883   8.6753   8.6753   9.3799   9.3799   9.4395   9.4395
     9.5444   9.5444   9.5741   9.5741  10.1042  10.1042  10.1733  10.1733
    11.4188  11.4188  11.5703  11.5703  12.2808  12.2808  12.4629  12.4629
    13.1586  13.1586  13.3292  13.3292  13.5840  13.5840  13.6546  13.6546
    13.7545  13.7546  13.7652  13.7652  14.2376  14.2376  14.6629  14.6630
    14.7832  14.7836

          k = 0.3256-0.9952 0.9464 ( 50418 PWs)   bands (ev):

   -63.6445 -63.6445 -63.6445 -63.6445 -63.6104 -63.6104 -63.6104 -63.6104
   -28.1040 -28.1040 -28.1040 -28.1040 -28.0674 -28.0674 -28.0674 -28.0674
   -27.8700 -27.8700 -27.8700 -27.8700 -27.8162 -27.8162 -27.8162 -27.8162
   -27.7136 -27.7136 -27.7136 -27.7136 -27.5699 -27.5699 -27.5699 -27.5699
    -3.0987  -3.0986  -2.9466  -2.9466  -2.5194  -2.5194  -2.3519  -2.3518
    -2.2590  -2.2589  -2.2317  -2.2316  -1.7207  -1.7207  -1.7167  -1.7167
     4.8231   4.8231   4.8741   4.8741   5.0111   5.0111   5.2679   5.2679
     5.4069   5.4069   5.4823   5.4823   5.8701   5.8701   5.9798   5.9798
     6.2203   6.2203   6.3682   6.3682   6.3876   6.3876   6.5667   6.5667
     6.7279   6.7279   6.8687   6.8688   7.0989   7.0989   7.2775   7.2775
     7.8096   7.8096   7.8763   7.8764   8.1370   8.1370   8.2162   8.2163
     8.7390   8.7390   8.7777   8.7778   9.1950   9.1950   9.3827   9.3827
     9.5174   9.5174   9.7955   9.7955   9.8093   9.8093   9.9138   9.9139
    11.4815  11.4815  11.6490  11.6490  12.1879  12.1879  12.4352  12.4352
    13.2837  13.2837  13.3006  13.3006  13.5748  13.5748  13.6291  13.6291
    13.6844  13.6844  13.8827  13.8827  14.1691  14.1691  14.5725  14.5725
    14.6788  14.6788

          k = 0.3363-0.9952-1.0761 ( 50390 PWs)   bands (ev):

   -63.6444 -63.6444 -63.6444 -63.6444 -63.6105 -63.6105 -63.6105 -63.6105
   -28.1021 -28.1021 -28.1021 -28.1021 -28.0702 -28.0702 -28.0701 -28.0701
   -27.8696 -27.8696 -27.8696 -27.8696 -27.8149 -27.8149 -27.8149 -27.8149
   -27.7120 -27.7120 -27.7120 -27.7120 -27.5724 -27.5724 -27.5724 -27.5724
    -2.8237  -2.8237  -2.7892  -2.7892  -2.5468  -2.5468  -2.5193  -2.5193
    -2.3922  -2.3921  -2.3830  -2.3830  -1.7394  -1.7394  -1.7275  -1.7275
     4.9483   4.9483   5.0613   5.0613   5.1355   5.1355   5.1418   5.1418
     5.3907   5.3907   5.6104   5.6104   5.6873   5.6873   5.8622   5.8622
     6.2261   6.2261   6.2563   6.2564   6.3473   6.3474   6.4919   6.4919
     6.7679   6.7679   6.7883   6.7883   7.1822   7.1823   7.2762   7.2762
     7.9335   7.9335   7.9966   7.9966   8.1253   8.1253   8.3722   8.3723
     8.6311   8.6311   8.6923   8.6923   9.2850   9.2850   9.3113   9.3113
     9.5410   9.5410   9.7256   9.7257   9.8164   9.8164   9.9693   9.9693
    11.3888  11.3888  11.6481  11.6481  12.1389  12.1389  12.2990  12.2990
    13.1841  13.1841  13.3808  13.3809  13.6667  13.6667  13.6814  13.6814
    13.8150  13.8150  13.9361  13.9361  14.1583  14.1583  14.3460  14.3460
    14.5977  14.5977

          k = 0.3342-0.9952-0.6716 ( 50436 PWs)   bands (ev):

   -63.6445 -63.6445 -63.6445 -63.6445 -63.6104 -63.6104 -63.6104 -63.6104
   -28.1040 -28.1040 -28.1040 -28.1040 -28.0674 -28.0674 -28.0674 -28.0674
   -27.8700 -27.8700 -27.8700 -27.8700 -27.8162 -27.8162 -27.8162 -27.8162
   -27.7136 -27.7136 -27.7136 -27.7136 -27.5699 -27.5699 -27.5699 -27.5699
    -3.1324  -3.1324  -2.8814  -2.8814  -2.5385  -2.5384  -2.3603  -2.3602
    -2.3295  -2.3295  -2.1701  -2.1700  -1.7312  -1.7312  -1.7008  -1.7008
     4.8113   4.8113   4.8780   4.8780   5.1148   5.1148   5.2513   5.2513
     5.2723   5.2723   5.5845   5.5846   5.7970   5.7971   5.8366   5.8366
     6.2540   6.2540   6.4017   6.4017   6.5212   6.5212   6.6671   6.6671
     6.7147   6.7147   6.7773   6.7773   7.1777   7.1777   7.1939   7.1939
     7.8812   7.8812   7.9267   7.9267   8.0253   8.0253   8.1549   8.1549
     8.7094   8.7094   8.8271   8.8271   9.1280   9.1280   9.3722   9.3722
     9.6071   9.6071   9.6943   9.6943   9.8844   9.8844   9.9546   9.9546
    11.3874  11.3875  11.7469  11.7469  12.2603  12.2603  12.3396  12.3396
    13.1187  13.1187  13.4577  13.4577  13.6181  13.6181  13.6629  13.6629
    13.6953  13.6953  13.8388  13.8388  14.3184  14.3184  14.5105  14.5105
    14.5895  14.5895

          k = 0.3320-0.9952-0.2671 ( 50442 PWs)   bands (ev):

   -63.6447 -63.6447 -63.6446 -63.6446 -63.6102 -63.6102 -63.6102 -63.6102
   -28.1061 -28.1061 -28.1061 -28.1061 -28.0640 -28.0640 -28.0640 -28.0640
   -27.8707 -27.8707 -27.8706 -27.8706 -27.8187 -27.8187 -27.8187 -27.8187
   -27.7163 -27.7163 -27.7163 -27.7163 -27.5653 -27.5653 -27.5653 -27.5653
    -3.3561  -3.3561  -3.1184  -3.1184  -2.5726  -2.5726  -2.3228  -2.3228
    -2.0246  -2.0245  -1.9293  -1.9293  -1.6949  -1.6949  -1.6693  -1.6693
     4.6085   4.6085   4.8237   4.8237   4.8392   4.8392   5.2380   5.2380
     5.2705   5.2705   5.6155   5.6156   5.8352   5.8352   5.9219   5.9219
     6.2338   6.2338   6.3611   6.3611   6.6345   6.6345   6.8466   6.8466
     6.9280   6.9280   7.0354   7.0354   7.1645   7.1646   7.3408   7.3408
     7.5663   7.5663   7.6570   7.6570   7.9715   7.9715   7.9988   7.9989
     8.5541   8.5541   8.6923   8.6924   9.2726   9.2726   9.3725   9.3725
     9.6115   9.6115   9.7345   9.7345  10.0133  10.0133  10.2476  10.2477
    11.3211  11.3211  11.6757  11.6757  12.2832  12.2832  12.4546  12.4546
    13.0831  13.0831  13.3860  13.3860  13.5252  13.5252  13.7213  13.7213
    13.7244  13.7244  13.7597  13.7597  14.3505  14.3505  14.5219  14.5219
    14.7108  14.7108

 ------ SPIN DOWN ----------


          k = 0.0000 0.0000 0.0000 ( 50421 PWs)   bands (ev):

   -63.6554 -63.6554 -63.6241 -63.6240 -63.6240 -63.6240 -63.6065 -63.6065
   -28.1587 -28.1587 -28.1587 -28.1587 -28.1102 -28.1102 -27.9445 -27.9445
   -27.9001 -27.9001 -27.8358 -27.8358 -27.8358 -27.8358 -27.7446 -27.7446
   -27.7397 -27.7397 -27.6530 -27.6529 -27.6529 -27.6529 -27.5457 -27.5457
    -4.1785  -3.9043  -2.8522  -2.5920  -2.2936  -2.2936  -2.1168  -2.1168
    -1.9869  -1.9561  -1.9202  -1.7676  -1.7676  -1.7547  -1.7010  -1.7010
     3.9552   3.9607   3.9730   4.8039   4.8039   4.8223   4.8223   5.1370
     5.2347   5.2347   5.4752   5.5815   5.5815   5.7890   5.9143   5.9193
     6.0685   6.0685   6.1637   6.1637   6.8214   6.9178   6.9534   6.9849
     7.0645   7.0645   7.1082   7.1155   7.1155   7.3508   7.3508   7.5008
     7.6935   7.6935   7.7508   7.8040   8.3522   8.3522   8.4791   8.6262
     8.6262   8.8907   9.0575   9.1894   9.1894   9.3081   9.3298   9.4653
     9.4653   9.5479   9.9442  10.2495  10.2940  10.4570  10.4788  10.5093
    10.6774  10.9164  11.6084  11.6321  12.7293  12.8700  13.0579  13.0579
    13.0851  13.0851  13.1084  13.1085  13.3325  13.3326  13.4112  13.4477
    13.5899  13.5899  13.7956  14.3038  14.3627  14.4384  14.4385  14.5906
    14.6184  14.7170

          k =-0.0022 0.0000 0.4045 ( 50419 PWs)   bands (ev):

   -63.6553 -63.6553 -63.6241 -63.6240 -63.6240 -63.6240 -63.6066 -63.6066
   -28.1620 -28.1620 -28.1620 -28.1619 -28.1037 -28.1037 -27.9436 -27.9436
   -27.9001 -27.9001 -27.8348 -27.8348 -27.8348 -27.8348 -27.7455 -27.7455
   -27.7406 -27.7406 -27.6504 -27.6504 -27.6504 -27.6504 -27.5519 -27.5519
    -4.0636  -3.8177  -2.8143  -2.6459  -2.3215  -2.3214  -2.1832  -2.1749
    -2.1748  -2.0331  -1.9336  -1.7797  -1.7166  -1.7166  -1.6461  -1.6461
     3.8312   4.1710   4.3684   4.4344   4.4344   4.5461   4.5462   5.1859
     5.2736   5.2770   5.2770   5.4783   5.7161   5.7161   6.2030   6.3012
     6.3441   6.3441   6.3658   6.3658   6.8528   6.9019   6.9288   7.0313
     7.0476   7.0476   7.0783   7.1545   7.1545   7.2784   7.4219   7.4220
     7.5057   7.6780   7.6781   8.2306   8.3161   8.3999   8.3999   8.7227
     8.7227   8.8739   9.0150   9.0750   9.1889   9.1889   9.2306   9.4779
     9.4779   9.5461   9.7676  10.0599  10.1606  10.2134  10.2547  10.7202
    10.8020  10.8194  11.4177  11.4725  12.8393  13.0084  13.0250  13.0250
    13.0485  13.0485  13.2025  13.2025  13.3845  13.3942  13.3942  13.4424
    13.8485  13.8485  13.9806  14.1297  14.3867  14.3867  14.4568  14.5584
    14.6515  14.8130

          k =-0.0043 0.0000 0.8090 ( 50459 PWs)   bands (ev):

   -63.6550 -63.6550 -63.6241 -63.6240 -63.6240 -63.6240 -63.6069 -63.6069
   -28.1683 -28.1683 -28.1683 -28.1683 -28.0902 -28.0902 -27.9418 -27.9418
   -27.9003 -27.9003 -27.8330 -27.8330 -27.8330 -27.8330 -27.7474 -27.7474
   -27.7425 -27.7425 -27.6453 -27.6453 -27.6453 -27.6453 -27.5647 -27.5647
    -3.7405  -3.5713  -2.8577  -2.8075  -2.4984  -2.3679  -2.3679  -2.2722
    -2.2621  -2.2621  -1.9544  -1.8044  -1.6302  -1.6302  -1.5575  -1.5575
     4.0240   4.0240   4.0830   4.1119   4.1119   4.4990   4.5211   5.0671
     5.3822   5.3822   5.6034   5.6091   5.9222   5.9222   6.1783   6.2127
     6.4076   6.4076   6.5933   6.5934   6.6884   6.9306   6.9811   7.0279
     7.0279   7.0899   7.1984   7.2315   7.2316   7.2624   7.6904   7.7204
     7.7205   7.8500   7.8500   8.1817   8.3467   8.4289   8.4290   8.5974
     8.5974   8.6428   8.7529   8.9001   9.0556   9.2973   9.4395   9.4395
     9.6242   9.6242   9.6796   9.6973   9.7965   9.9012  10.2847  10.6408
    10.6741  10.7469  11.1761  11.1767  12.9337  12.9337  12.9589  12.9589
    13.1116  13.1745  13.4774  13.4774  13.5347  13.6051  13.6606  13.6776
    13.6776  13.7313  14.1063  14.1063  14.3142  14.3142  14.4197  14.8144
    14.8955  15.0534

          k = 0.0065 0.0000-1.2135 ( 50496 PWs)   bands (ev):

   -63.6549 -63.6549 -63.6241 -63.6240 -63.6240 -63.6240 -63.6070 -63.6070
   -28.1714 -28.1714 -28.1714 -28.1714 -28.0831 -28.0831 -27.9408 -27.9408
   -27.9006 -27.9006 -27.8321 -27.8321 -27.8321 -27.8321 -27.7483 -27.7483
   -27.7435 -27.7435 -27.6427 -27.6427 -27.6427 -27.6427 -27.5713 -27.5713
    -3.2915  -3.2855  -3.2822  -3.0562  -2.5453  -2.3831  -2.3830  -2.3692
    -2.3047  -2.3046  -1.9731  -1.8135  -1.5648  -1.5648  -1.5437  -1.5437
     3.8903   3.8903   3.9182   3.9182   4.4085   4.4464   4.7500   4.7825
     5.4886   5.4886   5.5348   5.8968   5.8968   5.9127   6.3812   6.4135
     6.4442   6.4476   6.4476   6.5782   6.5783   6.9525   6.9764   7.0140
     7.1328   7.1328   7.2925   7.2930   7.2930   7.3667   7.6688   7.6688
     7.8112   7.8146   7.9241   8.2583   8.2583   8.3722   8.3722   8.3776
     8.3776   8.8244   8.8729   8.8971   8.9591   9.3519   9.5509   9.5589
     9.5589   9.6170   9.6365   9.6695   9.8414   9.8414  10.1687  10.4952
    10.6092  10.6881  11.0450  11.1325  12.8537  12.8537  12.8987  12.8987
    13.1590  13.2239  13.3773  13.6610  13.6804  13.7463  13.7463  13.8041
    13.8041  13.8819  14.1173  14.1173  14.3057  14.3366  14.3366  14.7112
    14.9325  14.9933

          k = 0.0000 0.3317 0.0000 ( 50417 PWs)   bands (ev):

   -63.6541 -63.6541 -63.6308 -63.6308 -63.6182 -63.6182 -63.6069 -63.6069
   -28.1484 -28.1484 -28.1468 -28.1468 -28.1076 -28.1076 -27.9625 -27.9624
   -27.8955 -27.8955 -27.8433 -27.8433 -27.8344 -27.8344 -27.7618 -27.7618
   -27.7324 -27.7324 -27.6833 -27.6833 -27.6183 -27.6183 -27.5461 -27.5461
    -4.0913  -3.8165  -2.8203  -2.5500  -2.5113  -2.3482  -2.2880  -2.1367
    -1.9490  -1.9402  -1.8945  -1.8836  -1.8729  -1.7575  -1.5712  -1.5494
     4.0431   4.0719   4.0782   4.7580   4.8885   4.9632   4.9751   5.0249
     5.2319   5.4170   5.4312   5.6185   5.7338   5.7755   5.8061   5.8139
     5.9369   6.3159   6.3407   6.4041   6.7459   6.7610   6.7800   6.8030
     6.8213   6.8304   6.8644   7.3888   7.3958   7.4105   7.4153   7.5281
     7.7325   7.8129   7.8236   7.8968   7.9351   8.2819   8.3369   8.4078
     8.4701   8.6117   8.9572   9.2191   9.3214   9.3876   9.5614   9.6101
     9.6958   9.7029   9.7090   9.7415   9.9407  10.2016  10.2769  10.5405
    10.7479  11.2450  11.7325  11.8074  12.5618  12.7216  12.7780  12.9339
    13.0457  13.0537  13.1369  13.2183  13.3492  13.4252  13.4438  13.4880
    13.6311  13.7382  13.8019  14.0090  14.1585  14.3197  14.4682  14.5641
    14.6409  14.6448

[...]
    14.6415  14.8049

          k = 0.3277 0.6635 0.5419 ( 50441 PWs)   bands (ev):

   -63.6503 -63.6503 -63.6380 -63.6380 -63.6136 -63.6136 -63.6082 -63.6082
   -28.1272 -28.1272 -28.1151 -28.1151 -28.0997 -28.0997 -28.0076 -28.0076
   -27.8847 -27.8847 -27.8558 -27.8558 -27.8311 -27.8311 -27.7921 -27.7921
   -27.7255 -27.7255 -27.7025 -27.7025 -27.5868 -27.5868 -27.5545 -27.5545
    -3.6315  -3.6247  -2.8552  -2.7899  -2.5677  -2.5274  -2.3418  -2.2542
    -2.0687  -2.0341  -1.9747  -1.9241  -1.8373  -1.7286  -1.5929  -1.5306
     4.3291   4.5257   4.6218   4.6643   4.8664   4.9379   4.9974   5.0856
     5.2134   5.4176   5.5327   5.5945   5.6963   5.7075   5.9907   6.0279
     6.1575   6.2190   6.4277   6.5692   6.6092   6.6715   6.8070   6.8652
     6.8863   6.9124   6.9791   7.1309   7.1314   7.2365   7.4920   7.6566
     7.6765   7.7381   7.8341   7.8650   7.8666   8.0232   8.1732   8.1799
     8.3441   8.3613   8.9988   9.0628   9.1057   9.1776   9.3851   9.4097
     9.4715   9.5289   9.6975   9.7711   9.9141   9.9261  10.1870  10.6210
    11.0723  11.1413  11.9413  12.0153  12.1117  12.1694  12.6541  12.6996
    13.1174  13.1942  13.3319  13.3654  13.4119  13.4721  13.4907  13.5896
    13.6516  13.8241  13.8336  14.0675  14.1681  14.3305  14.3841  14.5377
    14.7147  14.8024

          k = 0.3256 0.6635 0.9464 ( 50420 PWs)   bands (ev):

   -63.6501 -63.6501 -63.6378 -63.6378 -63.6137 -63.6137 -63.6084 -63.6084
   -28.1304 -28.1304 -28.1199 -28.1199 -28.0916 -28.0916 -28.0092 -28.0092
   -27.8842 -27.8841 -27.8551 -27.8551 -27.8270 -27.8270 -27.7925 -27.7924
   -27.7245 -27.7245 -27.6980 -27.6980 -27.5875 -27.5875 -27.5629 -27.5629
    -3.4143  -3.2995  -2.7594  -2.7095  -2.5573  -2.4895  -2.3862  -2.3515
    -2.3450  -2.3009  -2.1210  -2.0126  -1.8502  -1.7643  -1.6367  -1.5606
     4.4237   4.5275   4.6403   4.6892   4.8809   4.9948   5.0358   5.0925
     5.2910   5.3894   5.4587   5.6808   5.7236   6.0012   6.0484   6.1997
     6.2075   6.2107   6.2500   6.5295   6.5469   6.5849   6.6275   6.6847
     6.7194   6.8646   7.0084   7.0672   7.2040   7.2438   7.4996   7.6140
     7.7522   7.8200   7.8550   7.9445   8.1742   8.2465   8.3018   8.3429
     8.4480   8.5677   8.7949   8.8893   8.9933   9.0348   9.2974   9.3607
     9.4412   9.6442   9.6534   9.6767   9.8490  10.0026  10.1310  10.2388
    11.0766  11.1696  11.8241  11.9746  12.0168  12.1226  12.6322  12.7683
    13.1922  13.3036  13.3969  13.4257  13.4573  13.4583  13.6131  13.6419
    13.6500  13.8204  13.8722  14.0234  14.1953  14.2890  14.4072  14.5383
    14.7008  15.0001

          k = 0.3363 0.6635-1.0761 ( 50455 PWs)   bands (ev):

   -63.6500 -63.6500 -63.6378 -63.6378 -63.6138 -63.6138 -63.6085 -63.6085
   -28.1298 -28.1298 -28.1245 -28.1245 -28.0871 -28.0871 -28.0105 -28.0105
   -27.8839 -27.8839 -27.8546 -27.8546 -27.8252 -27.8252 -27.7925 -27.7925
   -27.7238 -27.7238 -27.6955 -27.6955 -27.5880 -27.5880 -27.5674 -27.5674
    -3.0787  -3.0764  -2.8633  -2.7740  -2.5844  -2.5149  -2.4909  -2.4187
    -2.4129  -2.3646  -2.1753  -2.0700  -1.8271  -1.7915  -1.6514  -1.5990
     4.3879   4.4850   4.8366   4.8844   4.9240   4.9360   4.9367   5.0056
     5.1886   5.4064   5.7259   5.7313   5.7636   5.9779   6.1272   6.1532
     6.1635   6.2279   6.2435   6.3460   6.5285   6.5681   6.6603   6.6828
     6.7166   6.8129   6.8706   6.9687   7.2606   7.3105   7.5160   7.6994
     7.7830   7.7872   7.9790   8.0989   8.2226   8.2550   8.3845   8.4588
     8.5220   8.5557   8.5630   8.5749   9.0699   9.0803   9.3468   9.3731
     9.5156   9.6026   9.7097   9.7912   9.8163   9.8548  10.1483  10.1832
    10.9704  11.1978  11.7041  11.8146  11.9048  12.0782  12.6083  12.7219
    13.2220  13.2645  13.3647  13.4678  13.5595  13.6624  13.7143  13.7149
    13.7150  13.7248  13.9687  14.1146  14.1299  14.1864  14.5289  14.5426
    14.7062  14.8845

          k = 0.3342 0.6635-0.6716 ( 50432 PWs)   bands (ev):

   -63.6501 -63.6501 -63.6378 -63.6378 -63.6137 -63.6137 -63.6084 -63.6084
   -28.1304 -28.1304 -28.1199 -28.1199 -28.0916 -28.0916 -28.0092 -28.0092
   -27.8842 -27.8841 -27.8551 -27.8551 -27.8270 -27.8270 -27.7924 -27.7924
   -27.7245 -27.7245 -27.6980 -27.6980 -27.5875 -27.5875 -27.5629 -27.5629
    -3.4713  -3.2026  -2.7509  -2.7308  -2.5926  -2.5318  -2.4361  -2.3368
    -2.2945  -2.2502  -2.1594  -2.0063  -1.8107  -1.7886  -1.6053  -1.5895
     4.4501   4.4646   4.4981   4.8605   4.9406   4.9457   5.0879   5.1102
     5.3624   5.3748   5.4587   5.6031   5.6886   5.9412   6.0166   6.1214
     6.2121   6.2292   6.2980   6.4090   6.5692   6.6481   6.6497   6.6819
     6.8641   6.9083   7.0015   7.0279   7.1666   7.2117   7.6157   7.6333
     7.7117   7.8438   8.0030   8.0292   8.0300   8.0431   8.2881   8.3408
     8.4302   8.5860   8.8432   8.8526   8.8663   9.1677   9.1708   9.4143
     9.5034   9.5910   9.6984   9.7909   9.8030   9.9359  10.1673  10.2925
    10.9014  11.3195  11.8919  11.9091  11.9434  12.1487  12.6624  12.7566
    13.1273  13.1974  13.4262  13.4455  13.4575  13.5920  13.6042  13.6570
    13.7851  13.8147  13.8908  13.9579  14.1961  14.2853  14.5658  14.5863
    14.5874  14.8724

          k = 0.3320 0.6635-0.2671 ( 50423 PWs)   bands (ev):

   -63.6503 -63.6503 -63.6380 -63.6380 -63.6136 -63.6136 -63.6082 -63.6082
   -28.1272 -28.1272 -28.1151 -28.1151 -28.0997 -28.0997 -28.0076 -28.0076
   -27.8847 -27.8847 -27.8558 -27.8558 -27.8311 -27.8311 -27.7921 -27.7921
   -27.7255 -27.7255 -27.7025 -27.7025 -27.5868 -27.5868 -27.5545 -27.5545
    -3.7276  -3.4966  -2.9150  -2.6940  -2.6728  -2.4537  -2.4459  -2.2177
    -2.1208  -1.9695  -1.9394  -1.9226  -1.8277  -1.7581  -1.5650  -1.5548
     4.3357   4.4273   4.6060   4.6755   4.7497   4.9924   5.0667   5.2535
     5.2608   5.4527   5.5047   5.5759   5.5947   5.7649   6.0171   6.0694
     6.0938   6.2077   6.4275   6.4811   6.6155   6.6873   6.7660   6.8310
     6.8339   6.9632   6.9996   7.1409   7.1884   7.2257   7.4254   7.6539
     7.6821   7.7059   7.8575   7.9197   7.9650   7.9732   8.2014   8.2263
     8.2584   8.3723   8.9427   8.9438   9.1700   9.2186   9.3014   9.3253
     9.4233   9.7005   9.7318   9.8141   9.9276   9.9440  10.3799  10.4711
    10.8864  11.3208  11.9278  12.0402  12.1100  12.1210  12.5979  12.7948
    13.0683  13.1691  13.3434  13.3540  13.3822  13.4458  13.4548  13.6154
    13.7218  13.7536  13.9648  14.0172  14.2082  14.2370  14.3525  14.5797
    14.6497  14.7120

          k = 0.3299-0.9952 0.1374 ( 50462 PWs)   bands (ev):

   -63.6448 -63.6448 -63.6448 -63.6448 -63.6102 -63.6102 -63.6102 -63.6102
   -28.1066 -28.1066 -28.1066 -28.1066 -28.0632 -28.0632 -28.0632 -28.0632
   -27.8710 -27.8710 -27.8710 -27.8710 -27.8200 -27.8200 -27.8200 -27.8200
   -27.7175 -27.7175 -27.7175 -27.7175 -27.5633 -27.5633 -27.5633 -27.5633
    -3.3974  -3.3974  -3.2682  -3.2682  -2.5061  -2.5061  -2.3648  -2.3647
    -1.9027  -1.9026  -1.8507  -1.8507  -1.6674  -1.6674  -1.6523  -1.6523
     4.5619   4.5619   4.6562   4.6562   4.9636   4.9636   5.1538   5.1538
     5.3140   5.3141   5.4602   5.4602   5.9479   5.9479   6.0154   6.0154
     6.0616   6.0616   6.1712   6.1712   6.8530   6.8530   6.9034   6.9035
     7.0456   7.0456   7.0769   7.0769   7.2929   7.2929   7.4165   7.4165
     7.6279   7.6279   7.7086   7.7086   7.9151   7.9151   8.0317   8.0317
     8.2132   8.2133   8.3159   8.3159   9.3999   9.3999   9.4787   9.4787
     9.5123   9.5123   9.7141   9.7141  10.2787  10.2787  10.4491  10.4491
    11.2510  11.2510  11.4969  11.4969  12.2409  12.2409  12.4273  12.4274
    13.0573  13.0573  13.3384  13.3384  13.5971  13.5971  13.6116  13.6116
    13.9782  13.9782  14.0448  14.0448  14.0802  14.0802  14.1779  14.1779
    14.7922  14.7922

          k = 0.3277-0.9952 0.5419 ( 50464 PWs)   bands (ev):

   -63.6447 -63.6447 -63.6447 -63.6447 -63.6103 -63.6103 -63.6103 -63.6103
   -28.1062 -28.1062 -28.1062 -28.1062 -28.0641 -28.0641 -28.0641 -28.0641
   -27.8707 -27.8707 -27.8707 -27.8707 -27.8188 -27.8188 -27.8188 -27.8188
   -27.7164 -27.7164 -27.7164 -27.7164 -27.5654 -27.5654 -27.5654 -27.5654
    -3.2661  -3.2660  -3.2496  -3.2496  -2.4448  -2.4448  -2.3937  -2.3937
    -2.0084  -2.0083  -1.9684  -1.9683  -1.6864  -1.6863  -1.6721  -1.6721
     4.6186   4.6187   4.7408   4.7408   5.0449   5.0450   5.1347   5.1347
     5.3013   5.3013   5.4858   5.4858   5.8893   5.8893   5.8956   5.8956
     6.2715   6.2715   6.3133   6.3133   6.6902   6.6902   6.8747   6.8747
     6.9709   6.9709   7.0373   7.0373   7.0493   7.0493   7.3667   7.3667
     7.5327   7.5327   7.7904   7.7904   7.8826   7.8826   7.9885   7.9885
     8.5882   8.5882   8.6752   8.6752   9.3798   9.3798   9.4394   9.4394
     9.5443   9.5443   9.5740   9.5740  10.1040  10.1040  10.1732  10.1732
    11.4187  11.4187  11.5702  11.5702  12.2807  12.2807  12.4628  12.4628
    13.1585  13.1585  13.3291  13.3291  13.5838  13.5838  13.6545  13.6545
    13.7544  13.7544  13.7651  13.7651  14.2376  14.2376  14.6629  14.6629
    14.7832  14.7832

          k = 0.3256-0.9952 0.9464 ( 50418 PWs)   bands (ev):

   -63.6445 -63.6445 -63.6445 -63.6445 -63.6105 -63.6105 -63.6105 -63.6105
   -28.1041 -28.1041 -28.1041 -28.1041 -28.0675 -28.0675 -28.0675 -28.0675
   -27.8701 -27.8701 -27.8701 -27.8701 -27.8163 -27.8163 -27.8163 -27.8163
   -27.7137 -27.7137 -27.7137 -27.7137 -27.5700 -27.5700 -27.5700 -27.5700
    -3.0987  -3.0987  -2.9466  -2.9466  -2.5194  -2.5194  -2.3519  -2.3519
    -2.2590  -2.2590  -2.2317  -2.2317  -1.7208  -1.7208  -1.7168  -1.7168
     4.8231   4.8231   4.8740   4.8740   5.0110   5.0110   5.2679   5.2679
     5.4069   5.4069   5.4822   5.4822   5.8700   5.8700   5.9797   5.9797
     6.2203   6.2203   6.3681   6.3681   6.3875   6.3875   6.5667   6.5667
     6.7278   6.7278   6.8687   6.8687   7.0989   7.0989   7.2774   7.2774
     7.8095   7.8095   7.8763   7.8763   8.1370   8.1370   8.2162   8.2162
     8.7389   8.7389   8.7777   8.7777   9.1950   9.1950   9.3826   9.3826
     9.5172   9.5172   9.7953   9.7953   9.8092   9.8092   9.9137   9.9137
    11.4814  11.4814  11.6488  11.6488  12.1877  12.1878  12.4351  12.4351
    13.2835  13.2835  13.3004  13.3004  13.5747  13.5747  13.6290  13.6290
    13.6843  13.6843  13.8825  13.8825  14.1690  14.1690  14.5725  14.5725
    14.6787  14.6788

          k = 0.3363-0.9952-1.0761 ( 50390 PWs)   bands (ev):

   -63.6444 -63.6444 -63.6444 -63.6444 -63.6106 -63.6106 -63.6106 -63.6106
   -28.1022 -28.1022 -28.1022 -28.1022 -28.0703 -28.0703 -28.0703 -28.0703
   -27.8697 -27.8697 -27.8697 -27.8697 -27.8150 -27.8150 -27.8150 -27.8150
   -27.7122 -27.7122 -27.7122 -27.7122 -27.5725 -27.5725 -27.5725 -27.5725
    -2.8237  -2.8237  -2.7892  -2.7892  -2.5468  -2.5468  -2.5194  -2.5194
    -2.3922  -2.3922  -2.3830  -2.3830  -1.7395  -1.7395  -1.7276  -1.7276
     4.9482   4.9482   5.0612   5.0612   5.1355   5.1355   5.1418   5.1418
     5.3906   5.3906   5.6104   5.6104   5.6873   5.6873   5.8621   5.8621
     6.2260   6.2260   6.2563   6.2563   6.3473   6.3473   6.4918   6.4918
     6.7678   6.7679   6.7882   6.7882   7.1822   7.1822   7.2761   7.2761
     7.9334   7.9335   7.9965   7.9965   8.1252   8.1252   8.3722   8.3722
     8.6310   8.6310   8.6922   8.6922   9.2850   9.2850   9.3112   9.3112
     9.5409   9.5409   9.7255   9.7255   9.8163   9.8163   9.9691   9.9691
    11.3886  11.3887  11.6479  11.6479  12.1387  12.1387  12.2989  12.2989
    13.1839  13.1839  13.3807  13.3807  13.6666  13.6666  13.6813  13.6813
    13.8149  13.8149  13.9360  13.9360  14.1583  14.1583  14.3459  14.3459
    14.5976  14.5976

          k = 0.3342-0.9952-0.6716 ( 50436 PWs)   bands (ev):

   -63.6445 -63.6445 -63.6445 -63.6445 -63.6105 -63.6105 -63.6105 -63.6105
   -28.1041 -28.1041 -28.1041 -28.1041 -28.0675 -28.0675 -28.0675 -28.0675
   -27.8701 -27.8701 -27.8701 -27.8701 -27.8163 -27.8163 -27.8163 -27.8163
   -27.7137 -27.7137 -27.7137 -27.7137 -27.5700 -27.5700 -27.5700 -27.5700
    -3.1325  -3.1324  -2.8815  -2.8814  -2.5385  -2.5385  -2.3603  -2.3603
    -2.3296  -2.3295  -2.1701  -2.1701  -1.7313  -1.7313  -1.7009  -1.7009
     4.8112   4.8112   4.8779   4.8780   5.1147   5.1147   5.2512   5.2513
     5.2723   5.2723   5.5845   5.5845   5.7970   5.7970   5.8365   5.8365
     6.2539   6.2539   6.4016   6.4016   6.5211   6.5211   6.6670   6.6670
     6.7147   6.7147   6.7772   6.7772   7.1776   7.1776   7.1939   7.1939
     7.8811   7.8811   7.9266   7.9266   8.0253   8.0253   8.1548   8.1548
     8.7093   8.7093   8.8270   8.8270   9.1279   9.1279   9.3721   9.3721
     9.6069   9.6070   9.6942   9.6942   9.8842   9.8842   9.9545   9.9545
    11.3873  11.3873  11.7468  11.7468  12.2602  12.2602  12.3394  12.3394
    13.1186  13.1186  13.4576  13.4576  13.6180  13.6180  13.6629  13.6629
    13.6952  13.6952  13.8387  13.8387  14.3184  14.3184  14.5104  14.5104
    14.5895  14.5895

          k = 0.3320-0.9952-0.2671 ( 50442 PWs)   bands (ev):

   -63.6447 -63.6447 -63.6447 -63.6447 -63.6103 -63.6103 -63.6103 -63.6103
   -28.1062 -28.1062 -28.1062 -28.1062 -28.0641 -28.0641 -28.0641 -28.0641
   -27.8708 -27.8708 -27.8707 -27.8707 -27.8188 -27.8188 -27.8188 -27.8188
   -27.7164 -27.7164 -27.7164 -27.7164 -27.5654 -27.5654 -27.5654 -27.5654
    -3.3561  -3.3561  -3.1185  -3.1184  -2.5726  -2.5726  -2.3229  -2.3228
    -2.0246  -2.0246  -1.9294  -1.9294  -1.6950  -1.6950  -1.6694  -1.6693
     4.6085   4.6085   4.8237   4.8237   4.8392   4.8392   5.2380   5.2380
     5.2704   5.2704   5.6155   5.6155   5.8351   5.8351   5.9218   5.9218
     6.2337   6.2337   6.3610   6.3610   6.6344   6.6345   6.8465   6.8465
     6.9280   6.9280   7.0353   7.0353   7.1645   7.1645   7.3407   7.3407
     7.5662   7.5662   7.6569   7.6569   7.9714   7.9714   7.9988   7.9988
     8.5540   8.5540   8.6923   8.6923   9.2726   9.2726   9.3724   9.3724
     9.6113   9.6113   9.7343   9.7343  10.0133  10.0133  10.2475  10.2475
    11.3209  11.3209  11.6756  11.6756  12.2831  12.2831  12.4545  12.4545
    13.0830  13.0830  13.3859  13.3859  13.5251  13.5251  13.7212  13.7212
    13.7242  13.7242  13.7596  13.7596  14.3505  14.3505  14.5218  14.5218
    14.7106  14.7107

     the Fermi energy is    10.6392 ev

!    total energy              =   -7144.31134184 Ry

     total all-electron energy =   -271062.859972 Ry
     estimated scf accuracy    <          7.3E-09 Ry
     smearing contrib. (-TS)   =      -0.00576933 Ry
     internal energy E=F+TS    =   -7144.30557251 Ry

     The total energy is F=E-TS. E is the sum of the following terms:
     one-electron contribution =    -612.23547593 Ry
     hartree contribution      =     406.12756418 Ry
     xc contribution           =    -402.26779471 Ry
     ewald contribution        =    -952.95071202 Ry
     DFT-D3 Dispersion         =      -0.39340935 Ry
     one-center paw contrib.   =   -5582.58574468 Ry

     total magnetization       =    -0.00 Bohr mag/cell
     absolute magnetization    =     0.00 Bohr mag/cell

     convergence has been achieved in  17 iterations

     Forces acting on atoms (cartesian axes, Ry/au):

     atom    1 type  1   force =    -0.00007280   -0.00000920    0.00000466
     atom    2 type  1   force =    -0.00007280    0.00000920    0.00000466
     atom    3 type  1   force =     0.00007280   -0.00000920   -0.00000466
     atom    4 type  1   force =     0.00007280    0.00000920   -0.00000466
     atom    5 type  1   force =    -0.00004927    0.00000000    0.00002096
     atom    6 type  1   force =    -0.00005490    0.00000000    0.00001402
     atom    7 type  1   force =     0.00004927    0.00000000   -0.00002096
     atom    8 type  1   force =     0.00005490    0.00000000   -0.00001402
     atom    9 type  2   force =    -0.00009265   -0.00000000    0.00009768
     atom   10 type  2   force =    -0.00009147    0.00000000    0.00009874
     atom   11 type  2   force =     0.00009265   -0.00000000   -0.00009768
     atom   12 type  2   force =     0.00009147    0.00000000   -0.00009874
     atom   13 type  2   force =    -0.00008926   -0.00000016    0.00009865
     atom   14 type  2   force =    -0.00008926    0.00000016    0.00009865
     atom   15 type  2   force =     0.00008926   -0.00000016   -0.00009865
     atom   16 type  2   force =     0.00008926    0.00000016   -0.00009865
     atom   17 type  2   force =    -0.00006688    0.00000000    0.00008864
     atom   18 type  2   force =    -0.00006619    0.00000000    0.00008866
     atom   19 type  2   force =     0.00006688    0.00000000   -0.00008864
     atom   20 type  2   force =     0.00006619    0.00000000   -0.00008866
     atom   21 type  2   force =    -0.00006394   -0.00000152    0.00008911
     atom   22 type  2   force =    -0.00006394    0.00000152    0.00008911
     atom   23 type  2   force =     0.00006394   -0.00000152   -0.00008911
     atom   24 type  2   force =     0.00006394    0.00000152   -0.00008911

     Total force =     0.000524     Total SCF correction =     0.000268
     SCF correction compared to forces is large: reduce conv_thr to get better values


     Computing stress (Cartesian axis) and pressure

          total   stress  (Ry/bohr**3)                   (kbar)     P=        0.02
   0.00000034   0.00000000   0.00000002            0.05        0.00        0.00
   0.00000000  -0.00000025   0.00000000            0.00       -0.04        0.00
   0.00000002   0.00000000   0.00000037            0.00        0.00        0.05


     Writing output data file ./tmp/test_PBE.save/

     init_run     :     21.07s CPU     21.37s WALL (       1 calls)
     electrons    :    900.34s CPU    908.58s WALL (       1 calls)
     forces       :      9.74s CPU      9.77s WALL (       1 calls)
     stress       :     14.96s CPU     14.99s WALL (       1 calls)

     Called by init_run:
     wfcinit      :     19.93s CPU     20.17s WALL (       1 calls)
     potinit      :      0.44s CPU      0.46s WALL (       1 calls)
     hinit0       :      0.46s CPU      0.47s WALL (       1 calls)

     Called by electrons:
     c_bands      :    775.74s CPU    782.32s WALL (      18 calls)
     sum_band     :    117.07s CPU    118.43s WALL (      18 calls)
     v_of_rho     :      0.78s CPU      0.79s WALL (      18 calls)
     newd         :      1.00s CPU      1.02s WALL (      18 calls)
     PAW_pot      :      3.16s CPU      3.21s WALL (      18 calls)
     mix_rho      :      0.16s CPU      0.17s WALL (      18 calls)

     Called by c_bands:
     init_us_2    :      7.10s CPU      7.16s WALL (    3120 calls)
     cegterg      :    759.17s CPU    764.67s WALL (    1440 calls)

     Called by *egterg:
     cdiaghg      :     98.06s CPU     98.17s WALL (    5899 calls)
     h_psi        :    545.66s CPU    550.95s WALL (    6059 calls)
     s_psi        :     25.81s CPU     25.88s WALL (    6059 calls)
     g_psi        :      0.43s CPU      0.44s WALL (    4539 calls)

     Called by h_psi:
     h_psi:calbec :     52.94s CPU     53.07s WALL (    6059 calls)
     vloc_psi     :    463.88s CPU    468.94s WALL (    6059 calls)
     add_vuspsi   :     27.33s CPU     27.43s WALL (    6059 calls)

     General routines
     calbec       :     79.36s CPU     79.58s WALL (    7899 calls)
     fft          :      0.69s CPU      0.71s WALL (     490 calls)
     ffts         :      0.06s CPU      0.07s WALL (      72 calls)
     fftw         :    539.32s CPU    545.27s WALL ( 1124082 calls)
     interpolate  :      0.07s CPU      0.07s WALL (      36 calls)

     Parallel routines
     fft_scatt_xy :     17.39s CPU     17.49s WALL ( 1124644 calls)
     fft_scatt_yz :    378.58s CPU    383.07s WALL ( 1124644 calls)

     PWSCF        :  16m 3.08s CPU  16m33.95s WALL


   This run was terminated on:  16:18:33   5Jul2023            

=------------------------------------------------------------------------------=
   JOB DONE.
=------------------------------------------------------------------------------=
